
     Program PWSCF v.6.5 starts on  5Aug2020 at 19:16:43 

     This program is part of the open-source Quantum ESPRESSO suite
     for quantum simulation of materials; please cite
         "P. Giannozzi et al., J. Phys.:Condens. Matter 21 395502 (2009);
         "P. Giannozzi et al., J. Phys.:Condens. Matter 29 465901 (2017);
          URL http://www.quantum-espresso.org", 
     in publications or presentations arising from this work. More details at
     http://www.quantum-espresso.org/quote

     Parallel version (MPI), running on    16 processors

     MPI processes distributed on     1 nodes
     R & G space division:  proc/nbgrp/npool/nimage =      16
     Waiting for input...
     Reading input from standard input

     Current dimensions of program PWSCF are:
     Max number of different atomic species (ntypx) = 10
     Max number of k-points (npk) =  40000
     Max angular momentum in pseudopotentials (lmaxx) =  3
     Message from routine read_upf::
     Pseudo file Cd.pbesol-dn-rrkjus_psl.0.3.1.UPF has been fixed on the fly.
To avoid this message in the future, permanently fix 
 your pseudo files following these instructions: 
https://gitlab.com/QEF/q-e/blob/master/upftools/how_to_fix_upf.md
               file Cd.pbesol-dn-rrkjus_psl.0.3.1.UPF: wavefunction(s)  4D renormalized

     Subspace diagonalization in iterative solution of the eigenvalue problem:
     a serial algorithm will be used

 
     Parallelization info
     --------------------
     sticks:   dense  smooth     PW     G-vecs:    dense   smooth      PW
     Min         166      40     12                 5640      683     118
     Max         167      41     13                 5641      687     122
     Sum        2665     649    199                90249    10969    1917
 


     bravais-lattice index     =            2
     lattice parameter (alat)  =      11.0001  a.u.
     unit-cell volume          =     332.7587 (a.u.)^3
     number of atoms/cell      =            8
     number of atomic types    =            2
     number of electrons       =        72.00
     number of Kohn-Sham states=           43
     kinetic-energy cutoff     =      39.1349  Ry
     charge density cutoff     =     637.5770  Ry
     convergence threshold     =      1.0E-06
     mixing beta               =       0.7000
     number of iterations used =            8  plain     mixing
     Exchange-correlation= SLA  PW   PSX  PSC
                           (   1   4  10   8   0   0   0)
     nstep                     =         1000


     celldm(1)=  11.000096  celldm(2)=   0.000000  celldm(3)=   0.000000
     celldm(4)=   0.000000  celldm(5)=   0.000000  celldm(6)=   0.000000

     crystal axes: (cart. coord. in units of alat)
               a(1) = (  -0.500000   0.000000   0.500000 )  
               a(2) = (   0.000000   0.500000   0.500000 )  
               a(3) = (  -0.500000   0.500000   0.000000 )  

     reciprocal axes: (cart. coord. in units 2 pi/alat)
               b(1) = ( -1.000000 -1.000000  1.000000 )  
               b(2) = (  1.000000  1.000000  1.000000 )  
               b(3) = ( -1.000000  1.000000 -1.000000 )  


     PseudoPot. # 1 for Cd read from file:
     ./Cd.pbesol-dn-rrkjus_psl.0.3.1.UPF
     MD5 check sum: 75c3aef906f21f7061977001f0aeeab1
     Pseudo is Ultrasoft + core correction, Zval = 12.0
     Generated using "atomic" code by A. Dal Corso v.6.0 svn rev. 13079
     Using radial grid of 1239 points,  6 beta functions with: 
                l(1) =   0
                l(2) =   0
                l(3) =   1
                l(4) =   1
                l(5) =   2
                l(6) =   2
     Q(r) pseudized with 0 coefficients 


     PseudoPot. # 2 for S  read from file:
     ./s_pbesol_v1.4.uspp.F.UPF
     MD5 check sum: 0ccfa86ec6eb59065d10aaae963ef2a7
     Pseudo is Ultrasoft + core correction, Zval =  6.0
     Generated by new atomic code, or converted to UPF format
     Using radial grid of  907 points,  6 beta functions with: 
                l(1) =   0
                l(2) =   0
                l(3) =   1
                l(4) =   1
                l(5) =   2
                l(6) =   2
     Q(r) pseudized with  8 coefficients,  rinner =    1.300   1.300   1.300
                                                       1.300   1.300

     atomic species   valence    mass     pseudopotential
        Cd            12.00   112.41100     Cd( 1.00)
        S              6.00    32.06600     S ( 1.00)

      cell mass =  43.91574 AMU 

     No symmetry found



   Cartesian axes

     site n.     atom                  positions (alat units)
         1           Cd  tau(   1) = (   0.0000000   0.0000000   0.0000000  )
         2           Cd  tau(   2) = (   0.0000000   0.5102932   0.5102932  )
         3           Cd  tau(   3) = (   0.5102932   0.0000000   0.5102932  )
         4           Cd  tau(   4) = (   0.5102932   0.5102932   0.0000000  )
         5           S   tau(   5) = (   0.2551467   0.2551467   0.7654400  )
         6           S   tau(   6) = (   0.2551467   0.7654400   0.2551467  )
         7           S   tau(   7) = (   0.7654400   0.2551467   0.2551467  )
         8           S   tau(   8) = (   0.7654400   0.7654400   0.7654400  )

     number of k points=    36  Gaussian smearing, width (Ry)=  0.0100
                       cart. coord. in units 2pi/alat
        k(    1) = (   0.0000000   0.0000000   0.0000000), wk =   0.0312500
        k(    2) = (  -0.2500000   0.2500000  -0.2500000), wk =   0.0625000
        k(    3) = (   0.5000000  -0.5000000   0.5000000), wk =   0.0312500
        k(    4) = (   0.2500000   0.2500000   0.2500000), wk =   0.0625000
        k(    5) = (   0.0000000   0.5000000   0.0000000), wk =   0.0625000
        k(    6) = (   0.7500000  -0.2500000   0.7500000), wk =   0.0625000
        k(    7) = (   0.5000000   0.0000000   0.5000000), wk =   0.0625000
        k(    8) = (  -0.5000000  -0.5000000  -0.5000000), wk =   0.0312500
        k(    9) = (  -0.7500000  -0.2500000  -0.7500000), wk =   0.0625000
        k(   10) = (   0.0000000  -1.0000000   0.0000000), wk =   0.0312500
        k(   11) = (  -0.2500000  -0.2500000   0.2500000), wk =   0.0625000
        k(   12) = (  -0.5000000   0.0000000   0.0000000), wk =   0.0625000
        k(   13) = (   0.2500000  -0.7500000   0.7500000), wk =   0.0625000
        k(   14) = (   0.0000000  -0.5000000   0.5000000), wk =   0.0625000
        k(   15) = (   0.0000000   0.0000000   0.5000000), wk =   0.0625000
        k(   16) = (  -0.2500000   0.2500000   0.2500000), wk =   0.0625000
        k(   17) = (   0.5000000  -0.5000000   1.0000000), wk =   0.0625000
        k(   18) = (   0.2500000  -0.2500000   0.7500000), wk =   0.0625000
        k(   19) = (  -0.7500000  -0.7500000  -0.2500000), wk =   0.0625000
        k(   20) = (  -1.0000000  -0.5000000  -0.5000000), wk =   0.0625000
        k(   21) = (  -0.2500000  -1.2500000   0.2500000), wk =   0.0625000
        k(   22) = (  -0.5000000  -1.0000000   0.0000000), wk =   0.0625000
        k(   23) = (  -0.5000000  -0.5000000   0.0000000), wk =   0.0625000
        k(   24) = (  -0.7500000  -0.2500000  -0.2500000), wk =   0.0625000
        k(   25) = (   0.0000000  -1.0000000   0.5000000), wk =   0.0625000
        k(   26) = (  -0.2500000  -0.7500000   0.2500000), wk =   0.0625000
        k(   27) = (   0.5000000   0.5000000  -0.5000000), wk =   0.0312500
        k(   28) = (   0.2500000   0.7500000  -0.7500000), wk =   0.0625000
        k(   29) = (   1.0000000   0.0000000   0.0000000), wk =   0.0312500
        k(   30) = (   0.7500000   0.7500000  -0.2500000), wk =   0.0625000
        k(   31) = (   0.5000000   1.0000000  -0.5000000), wk =   0.0625000
        k(   32) = (   1.2500000   0.2500000   0.2500000), wk =   0.0625000
        k(   33) = (   1.0000000   0.5000000   0.0000000), wk =   0.0625000
        k(   34) = (   0.0000000   0.0000000  -1.0000000), wk =   0.0312500
        k(   35) = (  -0.2500000   0.2500000  -1.2500000), wk =   0.0625000
        k(   36) = (   0.5000000  -0.5000000  -0.5000000), wk =   0.0312500

     Dense  grid:    90249 G-vectors     FFT dimensions: (  64,  64,  64)

     Smooth grid:    10969 G-vectors     FFT dimensions: (  32,  32,  32)

     Estimated max dynamical RAM per process >      38.04 MB

     Estimated total dynamical RAM >     608.59 MB

     Initial potential from superposition of free atoms

     starting charge   71.98205, renormalised to   72.00000
     Starting wfcs are   52 randomized atomic wfcs

 %%%%%%%%%%%%%%%%%%%%%%%%%%%%%%%%%%%%%%%%%%%%%%%%%%%%%%%%%%%%%%%%%%%%%%%%%%%%%%
     Error in routine cdiaghg (81):
     S matrix not positive definite
 %%%%%%%%%%%%%%%%%%%%%%%%%%%%%%%%%%%%%%%%%%%%%%%%%%%%%%%%%%%%%%%%%%%%%%%%%%%%%%

     stopping ...
