
     Program PWSCF v.6.5 starts on  5Aug2020 at 19:28:43 

     This program is part of the open-source Quantum ESPRESSO suite
     for quantum simulation of materials; please cite
         "P. Giannozzi et al., J. Phys.:Condens. Matter 21 395502 (2009);
         "P. Giannozzi et al., J. Phys.:Condens. Matter 29 465901 (2017);
          URL http://www.quantum-espresso.org", 
     in publications or presentations arising from this work. More details at
     http://www.quantum-espresso.org/quote

     Parallel version (MPI), running on    16 processors

     MPI processes distributed on     1 nodes
     R & G space division:  proc/nbgrp/npool/nimage =      16
     Waiting for input...
     Reading input from standard input

     Current dimensions of program PWSCF are:
     Max number of different atomic species (ntypx) = 10
     Max number of k-points (npk) =  40000
     Max angular momentum in pseudopotentials (lmaxx) =  3
     Message from routine read_upf::
     Pseudo file Cd.pbesol-dn-rrkjus_psl.0.3.1.UPF has been fixed on the fly.
To avoid this message in the future, permanently fix 
 your pseudo files following these instructions: 
https://gitlab.com/QEF/q-e/blob/master/upftools/how_to_fix_upf.md
               file Cd.pbesol-dn-rrkjus_psl.0.3.1.UPF: wavefunction(s)  4D renormalized

     Subspace diagonalization in iterative solution of the eigenvalue problem:
     a serial algorithm will be used

 
     Parallelization info
     --------------------
     sticks:   dense  smooth     PW     G-vecs:    dense   smooth      PW
     Min         166      40     12                 5640      683     118
     Max         167      41     13                 5641      687     122
     Sum        2665     649    199                90249    10969    1917
 


     bravais-lattice index     =            2
     lattice parameter (alat)  =      11.0001  a.u.
     unit-cell volume          =     332.7587 (a.u.)^3
     number of atoms/cell      =            2
     number of atomic types    =            2
     number of electrons       =        18.00
     number of Kohn-Sham states=           13
     kinetic-energy cutoff     =      39.1349  Ry
     charge density cutoff     =     637.5770  Ry
     convergence threshold     =      1.0E-06
     mixing beta               =       0.7000
     number of iterations used =            8  plain     mixing
     Exchange-correlation= SLA  PW   PSX  PSC
                           (   1   4  10   8   0   0   0)
     nstep                     =         1000


     celldm(1)=  11.000096  celldm(2)=   0.000000  celldm(3)=   0.000000
     celldm(4)=   0.000000  celldm(5)=   0.000000  celldm(6)=   0.000000

     crystal axes: (cart. coord. in units of alat)
               a(1) = (  -0.500000   0.000000   0.500000 )  
               a(2) = (   0.000000   0.500000   0.500000 )  
               a(3) = (  -0.500000   0.500000   0.000000 )  

     reciprocal axes: (cart. coord. in units 2 pi/alat)
               b(1) = ( -1.000000 -1.000000  1.000000 )  
               b(2) = (  1.000000  1.000000  1.000000 )  
               b(3) = ( -1.000000  1.000000 -1.000000 )  


     PseudoPot. # 1 for Cd read from file:
     ./Cd.pbesol-dn-rrkjus_psl.0.3.1.UPF
     MD5 check sum: 75c3aef906f21f7061977001f0aeeab1
     Pseudo is Ultrasoft + core correction, Zval = 12.0
     Generated using "atomic" code by A. Dal Corso v.6.0 svn rev. 13079
     Using radial grid of 1239 points,  6 beta functions with: 
                l(1) =   0
                l(2) =   0
                l(3) =   1
                l(4) =   1
                l(5) =   2
                l(6) =   2
     Q(r) pseudized with 0 coefficients 


     PseudoPot. # 2 for S  read from file:
     ./s_pbesol_v1.4.uspp.F.UPF
     MD5 check sum: 0ccfa86ec6eb59065d10aaae963ef2a7
     Pseudo is Ultrasoft + core correction, Zval =  6.0
     Generated by new atomic code, or converted to UPF format
     Using radial grid of  907 points,  6 beta functions with: 
                l(1) =   0
                l(2) =   0
                l(3) =   1
                l(4) =   1
                l(5) =   2
                l(6) =   2
     Q(r) pseudized with  8 coefficients,  rinner =    1.300   1.300   1.300
                                                       1.300   1.300

     atomic species   valence    mass     pseudopotential
        Cd            12.00   112.41100     Cd( 1.00)
        S              6.00    32.06600     S ( 1.00)

      cell mass =  10.97894 AMU 

     No symmetry found



   Cartesian axes

     site n.     atom                  positions (alat units)
         1           Cd  tau(   1) = (   0.0000000   0.0000000   0.0000000  )
         2           S   tau(   2) = (   0.2500000   0.2500000   0.2500000  )

     number of k points=    36  Gaussian smearing, width (Ry)=  0.0100
                       cart. coord. in units 2pi/alat
        k(    1) = (   0.0000000   0.0000000   0.0000000), wk =   0.0312500
        k(    2) = (  -0.2500000   0.2500000  -0.2500000), wk =   0.0625000
        k(    3) = (   0.5000000  -0.5000000   0.5000000), wk =   0.0312500
        k(    4) = (   0.2500000   0.2500000   0.2500000), wk =   0.0625000
        k(    5) = (   0.0000000   0.5000000   0.0000000), wk =   0.0625000
        k(    6) = (   0.7500000  -0.2500000   0.7500000), wk =   0.0625000
        k(    7) = (   0.5000000   0.0000000   0.5000000), wk =   0.0625000
        k(    8) = (  -0.5000000  -0.5000000  -0.5000000), wk =   0.0312500
        k(    9) = (  -0.7500000  -0.2500000  -0.7500000), wk =   0.0625000
        k(   10) = (   0.0000000  -1.0000000   0.0000000), wk =   0.0312500
        k(   11) = (  -0.2500000  -0.2500000   0.2500000), wk =   0.0625000
        k(   12) = (  -0.5000000   0.0000000   0.0000000), wk =   0.0625000
        k(   13) = (   0.2500000  -0.7500000   0.7500000), wk =   0.0625000
        k(   14) = (   0.0000000  -0.5000000   0.5000000), wk =   0.0625000
        k(   15) = (   0.0000000   0.0000000   0.5000000), wk =   0.0625000
        k(   16) = (  -0.2500000   0.2500000   0.2500000), wk =   0.0625000
        k(   17) = (   0.5000000  -0.5000000   1.0000000), wk =   0.0625000
        k(   18) = (   0.2500000  -0.2500000   0.7500000), wk =   0.0625000
        k(   19) = (  -0.7500000  -0.7500000  -0.2500000), wk =   0.0625000
        k(   20) = (  -1.0000000  -0.5000000  -0.5000000), wk =   0.0625000
        k(   21) = (  -0.2500000  -1.2500000   0.2500000), wk =   0.0625000
        k(   22) = (  -0.5000000  -1.0000000   0.0000000), wk =   0.0625000
        k(   23) = (  -0.5000000  -0.5000000   0.0000000), wk =   0.0625000
        k(   24) = (  -0.7500000  -0.2500000  -0.2500000), wk =   0.0625000
        k(   25) = (   0.0000000  -1.0000000   0.5000000), wk =   0.0625000
        k(   26) = (  -0.2500000  -0.7500000   0.2500000), wk =   0.0625000
        k(   27) = (   0.5000000   0.5000000  -0.5000000), wk =   0.0312500
        k(   28) = (   0.2500000   0.7500000  -0.7500000), wk =   0.0625000
        k(   29) = (   1.0000000   0.0000000   0.0000000), wk =   0.0312500
        k(   30) = (   0.7500000   0.7500000  -0.2500000), wk =   0.0625000
        k(   31) = (   0.5000000   1.0000000  -0.5000000), wk =   0.0625000
        k(   32) = (   1.2500000   0.2500000   0.2500000), wk =   0.0625000
        k(   33) = (   1.0000000   0.5000000   0.0000000), wk =   0.0625000
        k(   34) = (   0.0000000   0.0000000  -1.0000000), wk =   0.0312500
        k(   35) = (  -0.2500000   0.2500000  -1.2500000), wk =   0.0625000
        k(   36) = (   0.5000000  -0.5000000  -0.5000000), wk =   0.0312500

     Dense  grid:    90249 G-vectors     FFT dimensions: (  64,  64,  64)

     Smooth grid:    10969 G-vectors     FFT dimensions: (  32,  32,  32)

     Estimated max dynamical RAM per process >      35.76 MB

     Estimated total dynamical RAM >     572.19 MB

     Initial potential from superposition of free atoms

     starting charge   17.99551, renormalised to   18.00000
     Starting wfcs are   13 randomized atomic wfcs

     total cpu time spent up to now is        4.8 secs

     Self-consistent Calculation

     iteration #  1     ecut=    39.13 Ry     beta= 0.70
     Davidson diagonalization with overlap
     ethr =  1.00E-02,  avg # of iterations =  4.1

     Threshold (ethr) on eigenvalues was too large:
     Diagonalizing with lowered threshold

     Davidson diagonalization with overlap
     ethr =  4.15E-04,  avg # of iterations =  1.7

     total cpu time spent up to now is        6.2 secs

     total energy              =    -145.68922419 Ry
     Harris-Foulkes estimate   =    -145.73440730 Ry
     estimated scf accuracy    <       0.07368741 Ry

     iteration #  2     ecut=    39.13 Ry     beta= 0.70
     Davidson diagonalization with overlap
     ethr =  4.09E-04,  avg # of iterations =  2.1

     total cpu time spent up to now is        7.0 secs

     total energy              =    -145.70735575 Ry
     Harris-Foulkes estimate   =    -145.71909723 Ry
     estimated scf accuracy    <       0.01983223 Ry

     iteration #  3     ecut=    39.13 Ry     beta= 0.70
     Davidson diagonalization with overlap
     ethr =  1.10E-04,  avg # of iterations =  2.0

     total cpu time spent up to now is        7.7 secs

     total energy              =    -145.71191251 Ry
     Harris-Foulkes estimate   =    -145.71238103 Ry
     estimated scf accuracy    <       0.00089866 Ry

     iteration #  4     ecut=    39.13 Ry     beta= 0.70
     Davidson diagonalization with overlap
     ethr =  4.99E-06,  avg # of iterations =  3.8

     total cpu time spent up to now is        8.6 secs

     total energy              =    -145.71222462 Ry
     Harris-Foulkes estimate   =    -145.71239331 Ry
     estimated scf accuracy    <       0.00036873 Ry

     iteration #  5     ecut=    39.13 Ry     beta= 0.70
     Davidson diagonalization with overlap
     ethr =  2.05E-06,  avg # of iterations =  2.0

     total cpu time spent up to now is        9.3 secs

     total energy              =    -145.71228859 Ry
     Harris-Foulkes estimate   =    -145.71229008 Ry
     estimated scf accuracy    <       0.00000372 Ry

     iteration #  6     ecut=    39.13 Ry     beta= 0.70
     Davidson diagonalization with overlap
     ethr =  2.07E-08,  avg # of iterations =  3.8

     total cpu time spent up to now is       10.3 secs

     End of self-consistent calculation

          k = 0.0000 0.0000 0.0000 (  1363 PWs)   bands (ev):

    -7.0153  -2.2840  -2.2840  -2.2840  -1.7802  -1.7802   5.4260   5.4260
     5.4260   6.4031  11.8023  11.8023  11.8023

          k =-0.2500 0.2500-0.2500 (  1375 PWs)   bands (ev):

    -6.7910  -2.2096  -2.2095  -2.0412  -1.7760  -1.7760   2.8524   5.0111
     5.0111   8.0642  11.5545  12.3180  12.3181

          k = 0.5000-0.5000 0.5000 (  1380 PWs)   bands (ev):

    -6.5651  -2.1585  -2.1585  -1.7405  -1.7405  -1.3948   0.8745   4.6411
     4.6411   8.2826  12.2838  12.2839  12.7361

          k = 0.2500 0.2500 0.2500 (  1375 PWs)   bands (ev):

    -6.7910  -2.2096  -2.2095  -2.0412  -1.7760  -1.7760   2.8524   5.0111
     5.0112   8.0642  11.5545  12.3180  12.3181

          k = 0.0000 0.5000 0.0000 (  1355 PWs)   bands (ev):

    -6.7182  -2.1209  -2.1174  -2.1174  -1.8018  -1.7345   3.0463   4.3600
     4.3600   8.8911  10.0804  13.4201  13.4207

          k = 0.7500-0.2500 0.7500 (  1374 PWs)   bands (ev):

    -6.4972  -2.1059  -2.0353  -1.8795  -1.7249  -1.3652   1.4398   3.3781
     4.0217   9.4941  10.7845  12.8447  13.6985

          k = 0.5000 0.0000 0.5000 (  1368 PWs)   bands (ev):

    -6.5695  -2.1267  -2.1107  -1.8126  -1.7932  -1.5358   1.8351   3.3047
     4.6228   9.6050  11.4009  11.9965  12.9708

          k =-0.5000-0.5000-0.5000 (  1380 PWs)   bands (ev):

    -6.5651  -2.1585  -2.1585  -1.7405  -1.7405  -1.3948   0.8745   4.6411
     4.6411   8.2826  12.2838  12.2839  12.7361

          k =-0.7500-0.2500-0.7500 (  1374 PWs)   bands (ev):

    -6.4972  -2.1059  -2.0353  -1.8795  -1.7249  -1.3652   1.4397   3.3781
     4.0217   9.4941  10.7845  12.8447  13.6985

          k = 0.0000-1.0000 0.0000 (  1362 PWs)   bands (ev):

    -6.4259  -2.0732  -1.9169  -1.9169  -1.6884  -1.3345   1.3625   3.4681
     3.4681   8.7772   9.6528  14.4820  16.0877

          k =-0.2500-0.2500 0.2500 (  1375 PWs)   bands (ev):

    -6.7910  -2.2096  -2.2095  -2.0412  -1.7760  -1.7760   2.8524   5.0111
     5.0112   8.0642  11.5545  12.3181  12.3181

          k =-0.5000 0.0000 0.0000 (  1355 PWs)   bands (ev):

    -6.7182  -2.1209  -2.1174  -2.1174  -1.8018  -1.7345   3.0463   4.3600
     4.3600   8.8911  10.0804  13.4201  13.4204

          k = 0.2500-0.7500 0.7500 (  1374 PWs)   bands (ev):

    -6.4972  -2.1059  -2.0353  -1.8795  -1.7249  -1.3652   1.4398   3.3781
     4.0217   9.4941  10.7845  12.8447  13.6985

          k = 0.0000-0.5000 0.5000 (  1368 PWs)   bands (ev):

    -6.5695  -2.1267  -2.1107  -1.8126  -1.7932  -1.5358   1.8351   3.3046
     4.6228   9.6050  11.4009  11.9965  12.9708

          k = 0.0000 0.0000 0.5000 (  1355 PWs)   bands (ev):

    -6.7182  -2.1209  -2.1174  -2.1174  -1.8018  -1.7345   3.0463   4.3600
     4.3600   8.8911  10.0804  13.4201  13.4205

          k =-0.2500 0.2500 0.2500 (  1375 PWs)   bands (ev):

    -6.7910  -2.2096  -2.2096  -2.0412  -1.7760  -1.7760   2.8524   5.0111
     5.0112   8.0642  11.5545  12.3180  12.3181

          k = 0.5000-0.5000 1.0000 (  1368 PWs)   bands (ev):

    -6.5695  -2.1267  -2.1107  -1.8126  -1.7932  -1.5358   1.8351   3.3047
     4.6228   9.6050  11.4009  11.9965  12.9708

          k = 0.2500-0.2500 0.7500 (  1374 PWs)   bands (ev):

    -6.4972  -2.1059  -2.0353  -1.8795  -1.7249  -1.3652   1.4398   3.3781
     4.0217   9.4941  10.7845  12.8447  13.6985

          k =-0.7500-0.7500-0.2500 (  1374 PWs)   bands (ev):

    -6.4972  -2.1059  -2.0353  -1.8795  -1.7249  -1.3652   1.4397   3.3781
     4.0217   9.4942  10.7845  12.8447  13.6985

          k =-1.0000-0.5000-0.5000 (  1368 PWs)   bands (ev):

    -6.5695  -2.1267  -2.1107  -1.8126  -1.7932  -1.5358   1.8351   3.3047
     4.6229   9.6050  11.4009  11.9965  12.9708

          k =-0.2500-1.2500 0.2500 (  1374 PWs)   bands (ev):

    -6.4972  -2.1059  -2.0353  -1.8795  -1.7249  -1.3652   1.4397   3.3781
     4.0217   9.4941  10.7845  12.8447  13.6985

          k =-0.5000-1.0000 0.0000 (  1384 PWs)   bands (ev):

    -6.4276  -2.0473  -2.0184  -1.8215  -1.7753  -1.1335   1.4028   3.0494
     3.1561  10.7025  10.7852  12.5000  13.2817

          k =-0.5000-0.5000 0.0000 (  1368 PWs)   bands (ev):

    -6.5695  -2.1267  -2.1107  -1.8126  -1.7932  -1.5358   1.8351   3.3047
     4.6229   9.6050  11.4009  11.9965  12.9708

          k =-0.7500-0.2500-0.2500 (  1374 PWs)   bands (ev):

    -6.4972  -2.1059  -2.0353  -1.8795  -1.7249  -1.3652   1.4397   3.3781
     4.0217   9.4941  10.7845  12.8447  13.6985

          k = 0.0000-1.0000 0.5000 (  1384 PWs)   bands (ev):

    -6.4276  -2.0473  -2.0184  -1.8215  -1.7753  -1.1335   1.4028   3.0494
     3.1561  10.7025  10.7852  12.4999  13.2817

          k =-0.2500-0.7500 0.2500 (  1374 PWs)   bands (ev):

    -6.4972  -2.1059  -2.0353  -1.8795  -1.7249  -1.3652   1.4397   3.3781
     4.0217   9.4941  10.7845  12.8447  13.6985

          k = 0.5000 0.5000-0.5000 (  1380 PWs)   bands (ev):

    -6.5651  -2.1585  -2.1585  -1.7405  -1.7405  -1.3948   0.8745   4.6411
     4.6411   8.2826  12.2839  12.2839  12.7361

          k = 0.2500 0.7500-0.7500 (  1374 PWs)   bands (ev):

    -6.4972  -2.1059  -2.0353  -1.8795  -1.7249  -1.3652   1.4397   3.3781
     4.0217   9.4941  10.7845  12.8447  13.6985

          k = 1.0000 0.0000 0.0000 (  1362 PWs)   bands (ev):

    -6.4259  -2.0732  -1.9170  -1.9169  -1.6883  -1.3345   1.3625   3.4681
     3.4681   8.7772   9.6528  14.4820  16.0877

          k = 0.7500 0.7500-0.2500 (  1374 PWs)   bands (ev):

    -6.4972  -2.1059  -2.0353  -1.8795  -1.7249  -1.3652   1.4397   3.3781
     4.0217   9.4942  10.7845  12.8447  13.6985

          k = 0.5000 1.0000-0.5000 (  1368 PWs)   bands (ev):

    -6.5695  -2.1267  -2.1107  -1.8126  -1.7932  -1.5358   1.8351   3.3047
     4.6228   9.6050  11.4009  11.9965  12.9708

          k = 1.2500 0.2500 0.2500 (  1374 PWs)   bands (ev):

    -6.4972  -2.1059  -2.0353  -1.8795  -1.7249  -1.3652   1.4397   3.3781
     4.0217   9.4941  10.7845  12.8447  13.6985

          k = 1.0000 0.5000 0.0000 (  1384 PWs)   bands (ev):

    -6.4276  -2.0473  -2.0184  -1.8215  -1.7753  -1.1335   1.4028   3.0494
     3.1561  10.7024  10.7852  12.5000  13.2817

          k = 0.0000 0.0000-1.0000 (  1362 PWs)   bands (ev):

    -6.4259  -2.0732  -1.9169  -1.9169  -1.6884  -1.3345   1.3625   3.4681
     3.4681   8.7772   9.6528  14.4820  16.0877

          k =-0.2500 0.2500-1.2500 (  1374 PWs)   bands (ev):

    -6.4972  -2.1059  -2.0353  -1.8795  -1.7249  -1.3652   1.4397   3.3781
     4.0217   9.4941  10.7845  12.8447  13.6985

          k = 0.5000-0.5000-0.5000 (  1380 PWs)   bands (ev):

    -6.5651  -2.1585  -2.1585  -1.7405  -1.7405  -1.3948   0.8745   4.6411
     4.6411   8.2826  12.2838  12.2839  12.7361

     the Fermi energy is     5.9245 ev

!    total energy              =    -145.71229239 Ry
     Harris-Foulkes estimate   =    -145.71229274 Ry
     estimated scf accuracy    <       0.00000049 Ry

     convergence has been achieved in   6 iterations

     Forces acting on atoms (cartesian axes, Ry/au):

     atom    1 type  1   force =    -0.00000320    0.00000659   -0.00000889
     atom    2 type  2   force =     0.00000320   -0.00000659    0.00000889

     Total force =     0.000016     Total SCF correction =     0.000062
     SCF correction compared to forces is large: reduce conv_thr to get better values


     Computing stress (Cartesian axis) and pressure

          total   stress  (Ry/bohr**3)                   (kbar)     P=        6.09
   0.00004139  -0.00000003   0.00000002            6.09       -0.01        0.00
  -0.00000003   0.00004136   0.00000002           -0.01        6.08        0.00
   0.00000002   0.00000002   0.00004139            0.00        0.00        6.09


     Entering Dynamics;  it =     1   time =  0.00000 pico-seconds

  new lattice vectors (alat unit) :
  -0.499981949   0.000018054   0.499981950
  -0.000018047   0.499981951   0.499981957
  -0.499981958   0.499981953   0.000018045
  new unit-cell volume =    332.7046 (a.u.)^3
  new positions in cryst coord
Cd      -0.000000003  -0.000000001   0.000000005
S       -0.249999989   0.750000005  -0.250000017
  new positions in cart coord (alat unit)
Cd      -0.000000001   0.000000002  -0.000000002
S        0.249977444   0.249986456   0.249986477

     Ekin =     0.00000000 Ry    T =    0.0 K  Etot =  -145.62181047
     new unit-cell volume =    332.70465 a.u.^3 (    49.30174 Ang^3 )
     density =      4.86615 g/cm^3

CELL_PARAMETERS (alat= 11.00009582)
  -0.499981949   0.000018054   0.499981950
  -0.000018047   0.499981951   0.499981957
  -0.499981958   0.499981953   0.000018045

ATOMIC_POSITIONS (alat)
Cd           -0.0000000008        0.0000000017       -0.0000000022
S             0.2499774444        0.2499864559        0.2499864768



     Writing output data file ./outdir_4gpa_/pwscf.save/
     NEW-OLD atomic charge density approx. for the potential
     extrapolated charge   17.99708, renormalised to   18.00000

     total cpu time spent up to now is       14.3 secs

     Self-consistent Calculation

     iteration #  1     ecut=    39.13 Ry     beta= 0.70
     Davidson diagonalization with overlap
     ethr =  1.00E-06,  avg # of iterations =  2.0

     Threshold (ethr) on eigenvalues was too large:
     Diagonalizing with lowered threshold

     Davidson diagonalization with overlap
     ethr =  8.35E-09,  avg # of iterations =  1.0

     total cpu time spent up to now is       15.7 secs

     total energy              =    -145.71228906 Ry
     Harris-Foulkes estimate   =    -145.71983468 Ry
     estimated scf accuracy    <       0.00000153 Ry

     iteration #  2     ecut=    39.13 Ry     beta= 0.70
     Davidson diagonalization with overlap
     ethr =  8.49E-09,  avg # of iterations =  3.0

     total cpu time spent up to now is       16.7 secs

     total energy              =    -145.71229113 Ry
     Harris-Foulkes estimate   =    -145.71229315 Ry
     estimated scf accuracy    <       0.00000537 Ry

     iteration #  3     ecut=    39.13 Ry     beta= 0.70
     Davidson diagonalization with overlap
     ethr =  8.49E-09,  avg # of iterations =  2.0

     total cpu time spent up to now is       17.5 secs

     End of self-consistent calculation

          k = 0.0000 0.0000 0.0000 (  1363 PWs)   bands (ev):

    -7.0139  -2.2757  -2.2757  -2.2756  -1.7709  -1.7709   5.4292   5.4293
     5.4293   6.4072  11.8051  11.8058  11.8058

          k =-0.2500 0.2500-0.2500 (  1375 PWs)   bands (ev):

    -6.7894  -2.2011  -2.2011  -2.0330  -1.7667  -1.7667   2.8558   5.0141
     5.0142   8.0680  11.5581  12.3211  12.3217

          k = 0.5000-0.5000 0.5000 (  1380 PWs)   bands (ev):

    -6.5633  -2.1500  -2.1499  -1.7311  -1.7311  -1.3857   0.8765   4.6439
     4.6439   8.2865  12.2869  12.2873  12.7402

          k = 0.2500 0.2500 0.2500 (  1375 PWs)   bands (ev):

    -6.7894  -2.2011  -2.2011  -2.0330  -1.7667  -1.7667   2.8558   5.0141
     5.0142   8.0680  11.5581  12.3211  12.3217

          k = 0.0000 0.5000-0.0000 (  1355 PWs)   bands (ev):

    -6.7166  -2.1128  -2.1088  -2.1087  -1.7926  -1.7251   3.0501   4.3626
     4.3628   8.8948  10.0841  13.4235  13.4241

          k = 0.7500-0.2500 0.7501 (  1374 PWs)   bands (ev):

    -6.4953  -2.0973  -2.0265  -1.8705  -1.7155  -1.3562   1.4424   3.3807
     4.0241   9.4978  10.7885  12.8484  13.7017

          k = 0.5000 0.0000 0.5000 (  1368 PWs)   bands (ev):

    -6.5677  -2.1181  -2.1020  -1.8035  -1.7839  -1.5270   1.8381   3.3072
     4.6256   9.6089  11.4043  12.0002  12.9739

          k =-0.5000-0.5000-0.5000 (  1380 PWs)   bands (ev):

    -6.5633  -2.1500  -2.1500  -1.7311  -1.7311  -1.3857   0.8765   4.6439
     4.6439   8.2865  12.2869  12.2873  12.7402

          k =-0.7501-0.2500-0.7500 (  1374 PWs)   bands (ev):

    -6.4953  -2.0973  -2.0265  -1.8705  -1.7155  -1.3562   1.4424   3.3807
     4.0241   9.4978  10.7885  12.8484  13.7017

          k =-0.0000-1.0001 0.0000 (  1362 PWs)   bands (ev):

    -6.4239  -2.0648  -1.9079  -1.9079  -1.6789  -1.3256   1.3656   3.4701
     3.4704   8.7806   9.6569  14.4860  16.0921

          k =-0.2500-0.2500 0.2500 (  1375 PWs)   bands (ev):

    -6.7894  -2.2011  -2.2011  -2.0330  -1.7667  -1.7667   2.8558   5.0141
     5.0142   8.0680  11.5581  12.3211  12.3217

          k =-0.5000-0.0000-0.0000 (  1355 PWs)   bands (ev):

    -6.7166  -2.1128  -2.1088  -2.1087  -1.7926  -1.7251   3.0501   4.3626
     4.3628   8.8948  10.0841  13.4236  13.4239

          k = 0.2500-0.7500 0.7501 (  1374 PWs)   bands (ev):

    -6.4953  -2.0973  -2.0265  -1.8705  -1.7155  -1.3562   1.4424   3.3807
     4.0241   9.4978  10.7885  12.8484  13.7017

          k =-0.0000-0.5000 0.5000 (  1368 PWs)   bands (ev):

    -6.5677  -2.1181  -2.1020  -1.8035  -1.7839  -1.5270   1.8381   3.3072
     4.6256   9.6089  11.4043  12.0002  12.9739

          k = 0.0000-0.0000 0.5000 (  1355 PWs)   bands (ev):

    -6.7166  -2.1128  -2.1088  -2.1087  -1.7926  -1.7251   3.0501   4.3626
     4.3628   8.8948  10.0841  13.4236  13.4239

          k =-0.2500 0.2500 0.2500 (  1375 PWs)   bands (ev):

    -6.7895  -2.2011  -2.2011  -2.0330  -1.7667  -1.7667   2.8556   5.0143
     5.0143   8.0681  11.5578  12.3216  12.3216

          k = 0.5000-0.5000 1.0001 (  1368 PWs)   bands (ev):

    -6.5677  -2.1182  -2.1021  -1.8036  -1.7839  -1.5270   1.8381   3.3072
     4.6258   9.6091  11.4042  12.0002  12.9743

          k = 0.2500-0.2500 0.7500 (  1374 PWs)   bands (ev):

    -6.4953  -2.0973  -2.0266  -1.8705  -1.7155  -1.3562   1.4423   3.3807
     4.0243   9.4980  10.7879  12.8482  13.7019

          k =-0.7501-0.7500-0.2500 (  1374 PWs)   bands (ev):

    -6.4953  -2.0973  -2.0265  -1.8705  -1.7155  -1.3562   1.4424   3.3807
     4.0241   9.4978  10.7885  12.8484  13.7017

          k =-1.0001-0.5000-0.5000 (  1368 PWs)   bands (ev):

    -6.5677  -2.1182  -2.1021  -1.8036  -1.7839  -1.5270   1.8381   3.3072
     4.6258   9.6091  11.4042  12.0002  12.9743

          k =-0.2500-1.2501 0.2500 (  1374 PWs)   bands (ev):

    -6.4954  -2.0973  -2.0266  -1.8705  -1.7155  -1.3563   1.4424   3.3807
     4.0244   9.4982  10.7882  12.8484  13.7021

          k =-0.5000-1.0001 0.0000 (  1384 PWs)   bands (ev):

    -6.4257  -2.0387  -2.0095  -1.8122  -1.7661  -1.1243   1.4053   3.0513
     3.1588  10.7059  10.7895  12.5036  13.2851

          k =-0.5000-0.5000 0.0000 (  1368 PWs)   bands (ev):

    -6.5677  -2.1181  -2.1020  -1.8035  -1.7839  -1.5270   1.8381   3.3072
     4.6256   9.6089  11.4043  12.0002  12.9739

          k =-0.7500-0.2500-0.2500 (  1374 PWs)   bands (ev):

    -6.4953  -2.0973  -2.0266  -1.8705  -1.7155  -1.3562   1.4423   3.3807
     4.0243   9.4980  10.7879  12.8482  13.7019

          k =-0.0000-1.0001 0.5000 (  1384 PWs)   bands (ev):

    -6.4257  -2.0387  -2.0095  -1.8122  -1.7661  -1.1243   1.4053   3.0513
     3.1588  10.7059  10.7895  12.5036  13.2851

          k =-0.2500-0.7500 0.2500 (  1374 PWs)   bands (ev):

    -6.4953  -2.0973  -2.0266  -1.8705  -1.7155  -1.3562   1.4423   3.3807
     4.0243   9.4980  10.7879  12.8482  13.7019

          k = 0.5000 0.5000-0.5000 (  1380 PWs)   bands (ev):

    -6.5633  -2.1500  -2.1499  -1.7311  -1.7311  -1.3857   0.8765   4.6439
     4.6439   8.2865  12.2869  12.2873  12.7402

          k = 0.2500 0.7501-0.7500 (  1374 PWs)   bands (ev):

    -6.4953  -2.0973  -2.0265  -1.8705  -1.7155  -1.3562   1.4424   3.3807
     4.0241   9.4978  10.7885  12.8484  13.7017

          k = 1.0001 0.0000 0.0000 (  1362 PWs)   bands (ev):

    -6.4239  -2.0648  -1.9079  -1.9079  -1.6789  -1.3256   1.3656   3.4701
     3.4704   8.7806   9.6569  14.4860  16.0921

          k = 0.7500 0.7501-0.2500 (  1374 PWs)   bands (ev):

    -6.4953  -2.0973  -2.0265  -1.8705  -1.7155  -1.3562   1.4424   3.3807
     4.0241   9.4978  10.7885  12.8484  13.7017

          k = 0.5000 1.0001-0.5000 (  1368 PWs)   bands (ev):

    -6.5677  -2.1182  -2.1021  -1.8036  -1.7839  -1.5270   1.8381   3.3072
     4.6258   9.6092  11.4042  12.0002  12.9743

          k = 1.2501 0.2500 0.2500 (  1374 PWs)   bands (ev):

    -6.4954  -2.0973  -2.0266  -1.8705  -1.7155  -1.3563   1.4424   3.3807
     4.0244   9.4982  10.7882  12.8484  13.7021

          k = 1.0001 0.5000 0.0000 (  1384 PWs)   bands (ev):

    -6.4257  -2.0387  -2.0095  -1.8122  -1.7661  -1.1243   1.4053   3.0513
     3.1588  10.7059  10.7895  12.5036  13.2851

          k =-0.0000 0.0000-1.0001 (  1362 PWs)   bands (ev):

    -6.4239  -2.0648  -1.9079  -1.9079  -1.6789  -1.3256   1.3656   3.4701
     3.4704   8.7806   9.6569  14.4860  16.0922

          k =-0.2500 0.2500-1.2501 (  1374 PWs)   bands (ev):

    -6.4954  -2.0973  -2.0266  -1.8705  -1.7155  -1.3563   1.4424   3.3807
     4.0244   9.4982  10.7882  12.8484  13.7021

          k = 0.5000-0.5000-0.5000 (  1380 PWs)   bands (ev):

    -6.5633  -2.1500  -2.1500  -1.7311  -1.7311  -1.3858   0.8765   4.6441
     4.6441   8.2868  12.2874  12.2874  12.7398

     the Fermi energy is     5.9282 ev

!    total energy              =    -145.71229084 Ry
     Harris-Foulkes estimate   =    -145.71229157 Ry
     estimated scf accuracy    <       0.00000084 Ry

     convergence has been achieved in   3 iterations

     Forces acting on atoms (cartesian axes, Ry/au):

     atom    1 type  1   force =     0.00000952   -0.00000876   -0.00000909
     atom    2 type  2   force =    -0.00000952    0.00000876    0.00000909

     Total force =     0.000022     Total SCF correction =     0.000006
     SCF correction compared to forces is large: reduce conv_thr to get better values


     Computing stress (Cartesian axis) and pressure

          total   stress  (Ry/bohr**3)                   (kbar)     P=       -2.66
  -0.00001807   0.00000013   0.00000013           -2.66        0.02        0.02
   0.00000013  -0.00001807  -0.00000012            0.02       -2.66       -0.02
   0.00000013  -0.00000012  -0.00001807            0.02       -0.02       -2.66


     Entering Dynamics;  it =     2   time =  0.00100 pico-seconds

  new lattice vectors (alat unit) :
  -0.499929850   0.000070127   0.499929852
  -0.000070112   0.499929855   0.499929867
  -0.499929869   0.499929859   0.000070109
  new unit-cell volume =    332.5487 (a.u.)^3
  new positions in cryst coord
Cd      -0.000000010  -0.000000006   0.000000006
S       -0.249999965   0.750000021  -0.250000021
  new positions in cart coord (alat unit)
Cd       0.000000002   0.000000000  -0.000000008
S        0.249912338   0.249947395   0.249947438

     Ekin =     0.00001466 Ry    T =    0.5 K  Etot =  -145.62180895
     new unit-cell volume =    332.54870 a.u.^3 (    49.27863 Ang^3 )
     density =      4.86843 g/cm^3

CELL_PARAMETERS (alat= 11.00009582)
  -0.499929850   0.000070127   0.499929852
  -0.000070112   0.499929855   0.499929867
  -0.499929869   0.499929859   0.000070109

ATOMIC_POSITIONS (alat)
Cd            0.0000000020        0.0000000000       -0.0000000079
S             0.2499123385        0.2499473948        0.2499474379



     Writing output data file ./outdir_4gpa_/pwscf.save/
     NEW-OLD atomic charge density approx. for the potential
     extrapolated charge   17.99156, renormalised to   18.00000

     total cpu time spent up to now is       21.8 secs

     Self-consistent Calculation

     iteration #  1     ecut=    39.13 Ry     beta= 0.70
     Davidson diagonalization with overlap
     ethr =  1.00E-06,  avg # of iterations =  2.0

     total cpu time spent up to now is       22.7 secs

     total energy              =    -145.71224578 Ry
     Harris-Foulkes estimate   =    -145.73406272 Ry
     estimated scf accuracy    <       0.00003520 Ry

     iteration #  2     ecut=    39.13 Ry     beta= 0.70
     Davidson diagonalization with overlap
     ethr =  1.96E-07,  avg # of iterations =  3.0

     total cpu time spent up to now is       23.6 secs

     total energy              =    -145.71227854 Ry
     Harris-Foulkes estimate   =    -145.71232146 Ry
     estimated scf accuracy    <       0.00010155 Ry

     iteration #  3     ecut=    39.13 Ry     beta= 0.70
     Davidson diagonalization with overlap
     ethr =  1.96E-07,  avg # of iterations =  2.0

     total cpu time spent up to now is       24.4 secs

     total energy              =    -145.71228766 Ry
     Harris-Foulkes estimate   =    -145.71228984 Ry
     estimated scf accuracy    <       0.00000858 Ry

     iteration #  4     ecut=    39.13 Ry     beta= 0.70
     Davidson diagonalization with overlap
     ethr =  4.77E-08,  avg # of iterations =  1.2

     total cpu time spent up to now is       25.1 secs

     total energy              =    -145.71228786 Ry
     Harris-Foulkes estimate   =    -145.71228810 Ry
     estimated scf accuracy    <       0.00000322 Ry

     iteration #  5     ecut=    39.13 Ry     beta= 0.70
     Davidson diagonalization with overlap
     ethr =  1.79E-08,  avg # of iterations =  1.0

     total cpu time spent up to now is       25.8 secs

     total energy              =    -145.71228776 Ry
     Harris-Foulkes estimate   =    -145.71228793 Ry
     estimated scf accuracy    <       0.00000247 Ry

     iteration #  6     ecut=    39.13 Ry     beta= 0.70
     Davidson diagonalization with overlap
     ethr =  1.37E-08,  avg # of iterations =  1.0

     total cpu time spent up to now is       26.5 secs

     total energy              =    -145.71228683 Ry
     Harris-Foulkes estimate   =    -145.71228778 Ry
     estimated scf accuracy    <       0.00000188 Ry

     iteration #  7     ecut=    39.13 Ry     beta= 0.70
     Davidson diagonalization with overlap
     ethr =  1.05E-08,  avg # of iterations =  2.0

     total cpu time spent up to now is       27.3 secs

     End of self-consistent calculation

          k = 0.0000 0.0000 0.0000 (  1363 PWs)   bands (ev):

    -7.0125  -2.2751  -2.2751  -2.2749  -1.7699  -1.7699   5.4327   5.4334
     5.4334   6.4132  11.8088  11.8116  11.8116

          k =-0.2501 0.2501-0.2501 (  1375 PWs)   bands (ev):

    -6.7879  -2.2005  -2.2003  -2.0323  -1.7657  -1.7657   2.8591   5.0175
     5.0179   8.0738  11.5639  12.3255  12.3276

          k = 0.5001-0.5001 0.5002 (  1380 PWs)   bands (ev):

    -6.5616  -2.1493  -2.1492  -1.7301  -1.7301  -1.3842   0.8785   4.6471
     4.6473   8.2920  12.2912  12.2929  12.7469

          k = 0.2501 0.2501 0.2501 (  1375 PWs)   bands (ev):

    -6.7879  -2.2005  -2.2003  -2.0323  -1.7657  -1.7657   2.8591   5.0175
     5.0179   8.0738  11.5639  12.3255  12.3276

          k = 0.0000 0.5001-0.0000 (  1355 PWs)   bands (ev):

    -6.7151  -2.1121  -2.1082  -2.1080  -1.7916  -1.7240   3.0537   4.3656
     4.3665   8.9007  10.0892  13.4290  13.4302

          k = 0.7502-0.2501 0.7502 (  1374 PWs)   bands (ev):

    -6.4937  -2.0966  -2.0257  -1.8696  -1.7145  -1.3547   1.4449   3.3837
     4.0269   9.5029  10.7947  12.8543  13.7071

          k = 0.5001 0.0000 0.5001 (  1368 PWs)   bands (ev):

    -6.5660  -2.1174  -2.1012  -1.8026  -1.7830  -1.5257   1.8407   3.3101
     4.6289   9.6149  11.4095  12.0058  12.9789

          k =-0.5002-0.5001-0.5001 (  1380 PWs)   bands (ev):

    -6.5616  -2.1493  -2.1492  -1.7301  -1.7301  -1.3842   0.8785   4.6471
     4.6473   8.2920  12.2912  12.2929  12.7469

          k =-0.7502-0.2501-0.7502 (  1374 PWs)   bands (ev):

    -6.4937  -2.0966  -2.0257  -1.8696  -1.7145  -1.3547   1.4449   3.3837
     4.0269   9.5029  10.7947  12.8543  13.7071

          k =-0.0001-1.0002 0.0001 (  1362 PWs)   bands (ev):

    -6.4223  -2.0640  -1.9072  -1.9069  -1.6778  -1.3241   1.3681   3.4726
     3.4737   8.7853   9.6623  14.4930  16.0996

          k =-0.2501-0.2501 0.2501 (  1375 PWs)   bands (ev):

    -6.7879  -2.2005  -2.2003  -2.0323  -1.7657  -1.7657   2.8591   5.0175
     5.0179   8.0738  11.5639  12.3255  12.3276

          k =-0.5001-0.0000-0.0000 (  1355 PWs)   bands (ev):

    -6.7151  -2.1121  -2.1082  -2.1080  -1.7916  -1.7240   3.0537   4.3656
     4.3665   8.9007  10.0892  13.4290  13.4301

          k = 0.2501-0.7502 0.7502 (  1374 PWs)   bands (ev):

    -6.4937  -2.0966  -2.0257  -1.8696  -1.7145  -1.3547   1.4449   3.3837
     4.0269   9.5029  10.7947  12.8543  13.7071

          k =-0.0000-0.5001 0.5001 (  1368 PWs)   bands (ev):

    -6.5660  -2.1174  -2.1012  -1.8026  -1.7830  -1.5257   1.8407   3.3101
     4.6289   9.6149  11.4095  12.0058  12.9789

          k = 0.0000-0.0000 0.5001 (  1355 PWs)   bands (ev):

    -6.7151  -2.1121  -2.1082  -2.1080  -1.7916  -1.7240   3.0537   4.3656
     4.3665   8.9007  10.0892  13.4290  13.4301

          k =-0.2500 0.2500 0.2500 (  1375 PWs)   bands (ev):

    -6.7881  -2.2006  -2.2006  -2.0321  -1.7657  -1.7657   2.8586   5.0184
     5.0184   8.0743  11.5628  12.3274  12.3274

          k = 0.5001-0.5001 1.0003 (  1368 PWs)   bands (ev):

    -6.5662  -2.1175  -2.1015  -1.8026  -1.7829  -1.5258   1.8410   3.3100
     4.6295   9.6157  11.4094  12.0061  12.9804

          k = 0.2501-0.2501 0.7502 (  1374 PWs)   bands (ev):

    -6.4937  -2.0965  -2.0259  -1.8695  -1.7144  -1.3547   1.4446   3.3836
     4.0276   9.5038  10.7927  12.8536  13.7079

          k =-0.7502-0.7502-0.2501 (  1374 PWs)   bands (ev):

    -6.4937  -2.0966  -2.0257  -1.8696  -1.7145  -1.3547   1.4449   3.3837
     4.0269   9.5029  10.7947  12.8543  13.7071

          k =-1.0003-0.5001-0.5001 (  1368 PWs)   bands (ev):

    -6.5662  -2.1175  -2.1015  -1.8026  -1.7829  -1.5258   1.8410   3.3100
     4.6295   9.6157  11.4094  12.0061  12.9804

          k =-0.2501-1.2503 0.2501 (  1374 PWs)   bands (ev):

    -6.4938  -2.0967  -2.0260  -1.8696  -1.7145  -1.3549   1.4450   3.3836
     4.0280   9.5044  10.7936  12.8545  13.7085

          k =-0.5002-1.0002 0.0000 (  1384 PWs)   bands (ev):

    -6.4241  -2.0379  -2.0087  -1.8113  -1.7651  -1.1225   1.4078   3.0539
     3.1615  10.7110  10.7960  12.5098  13.2903

          k =-0.5001-0.5001 0.0000 (  1368 PWs)   bands (ev):

    -6.5660  -2.1174  -2.1012  -1.8026  -1.7830  -1.5257   1.8407   3.3101
     4.6289   9.6149  11.4095  12.0058  12.9789

          k =-0.7502-0.2501-0.2501 (  1374 PWs)   bands (ev):

    -6.4937  -2.0965  -2.0259  -1.8695  -1.7144  -1.3547   1.4446   3.3836
     4.0276   9.5038  10.7927  12.8536  13.7079

          k =-0.0000-1.0002 0.5002 (  1384 PWs)   bands (ev):

    -6.4241  -2.0379  -2.0087  -1.8113  -1.7651  -1.1225   1.4078   3.0539
     3.1615  10.7110  10.7960  12.5098  13.2903

          k =-0.2501-0.7502 0.2501 (  1374 PWs)   bands (ev):

    -6.4937  -2.0965  -2.0259  -1.8695  -1.7144  -1.3547   1.4446   3.3836
     4.0276   9.5038  10.7927  12.8536  13.7079

          k = 0.5001 0.5002-0.5001 (  1380 PWs)   bands (ev):

    -6.5616  -2.1493  -2.1492  -1.7301  -1.7301  -1.3842   0.8785   4.6471
     4.6473   8.2920  12.2912  12.2929  12.7469

          k = 0.2501 0.7502-0.7502 (  1374 PWs)   bands (ev):

    -6.4937  -2.0966  -2.0257  -1.8696  -1.7145  -1.3547   1.4449   3.3837
     4.0269   9.5029  10.7947  12.8543  13.7071

          k = 1.0002 0.0001 0.0001 (  1362 PWs)   bands (ev):

    -6.4223  -2.0640  -1.9072  -1.9069  -1.6778  -1.3241   1.3681   3.4726
     3.4737   8.7853   9.6623  14.4930  16.0996

          k = 0.7502 0.7502-0.2501 (  1374 PWs)   bands (ev):

    -6.4937  -2.0966  -2.0257  -1.8696  -1.7145  -1.3547   1.4449   3.3837
     4.0269   9.5029  10.7947  12.8543  13.7071

          k = 0.5001 1.0003-0.5001 (  1368 PWs)   bands (ev):

    -6.5662  -2.1175  -2.1015  -1.8026  -1.7829  -1.5258   1.8410   3.3100
     4.6295   9.6157  11.4094  12.0061  12.9804

          k = 1.2503 0.2501 0.2501 (  1374 PWs)   bands (ev):

    -6.4938  -2.0967  -2.0260  -1.8696  -1.7145  -1.3549   1.4450   3.3836
     4.0280   9.5044  10.7936  12.8545  13.7085

          k = 1.0002 0.5002 0.0000 (  1384 PWs)   bands (ev):

    -6.4241  -2.0379  -2.0087  -1.8113  -1.7651  -1.1225   1.4078   3.0539
     3.1615  10.7110  10.7960  12.5098  13.2903

          k =-0.0001 0.0001-1.0002 (  1362 PWs)   bands (ev):

    -6.4223  -2.0640  -1.9072  -1.9069  -1.6778  -1.3241   1.3681   3.4726
     3.4737   8.7853   9.6623  14.4930  16.1001

          k =-0.2501 0.2501-1.2503 (  1374 PWs)   bands (ev):

    -6.4938  -2.0967  -2.0260  -1.8696  -1.7145  -1.3549   1.4450   3.3836
     4.0280   9.5044  10.7936  12.8545  13.7085

          k = 0.5000-0.5000-0.5000 (  1380 PWs)   bands (ev):

    -6.5619  -2.1495  -2.1495  -1.7301  -1.7301  -1.3845   0.8786   4.6481
     4.6481   8.2932  12.2933  12.2933  12.7455

     the Fermi energy is     5.9332 ev

!    total energy              =    -145.71228714 Ry
     Harris-Foulkes estimate   =    -145.71228717 Ry
     estimated scf accuracy    <       0.00000003 Ry

     convergence has been achieved in   7 iterations

     Forces acting on atoms (cartesian axes, Ry/au):

     atom    1 type  1   force =     0.00003615   -0.00003644   -0.00003560
     atom    2 type  2   force =    -0.00003615    0.00003644    0.00003560

     Total force =     0.000088     Total SCF correction =     0.000004


     Computing stress (Cartesian axis) and pressure

          total   stress  (Ry/bohr**3)                   (kbar)     P=        2.99
   0.00002031   0.00000051   0.00000051            2.99        0.07        0.08
   0.00000051   0.00002032  -0.00000051            0.07        2.99       -0.07
   0.00000051  -0.00000051   0.00002031            0.08       -0.07        2.99


     Entering Dynamics;  it =     3   time =  0.00200 pico-seconds

  new lattice vectors (alat unit) :
  -0.499848219   0.000151618   0.499848222
  -0.000151594   0.499848228   0.499848245
  -0.499848248   0.499848233   0.000151589
  new unit-cell volume =    332.3045 (a.u.)^3
  new positions in cryst coord
Cd      -0.000000030  -0.000000024  -0.000000007
S       -0.249999894   0.750000084  -0.249999976
  new positions in cart coord (alat unit)
Cd       0.000000018  -0.000000015  -0.000000027
S        0.249810356   0.249886262   0.249886326

     Ekin =     0.00005826 Ry    T =    1.3 K  Etot =  -145.62180407
     new unit-cell volume =    332.30453 a.u.^3 (    49.24245 Ang^3 )
     density =      4.87201 g/cm^3

CELL_PARAMETERS (alat= 11.00009582)
  -0.499848219   0.000151618   0.499848222
  -0.000151594   0.499848228   0.499848245
  -0.499848248   0.499848233   0.000151589

ATOMIC_POSITIONS (alat)
Cd            0.0000000185       -0.0000000155       -0.0000000271
S             0.2498103563        0.2498862624        0.2498863264



     Writing output data file ./outdir_4gpa_/pwscf.save/
     NEW-OLD atomic charge density approx. for the potential
     extrapolated charge   17.98678, renormalised to   18.00000

     total cpu time spent up to now is       31.6 secs

     Self-consistent Calculation

     iteration #  1     ecut=    39.13 Ry     beta= 0.70
     Davidson diagonalization with overlap
     ethr =  1.00E-06,  avg # of iterations =  2.0

     total cpu time spent up to now is       32.4 secs

     total energy              =    -145.71220318 Ry
     Harris-Foulkes estimate   =    -145.74638157 Ry
     estimated scf accuracy    <       0.00005469 Ry

     iteration #  2     ecut=    39.13 Ry     beta= 0.70
     Davidson diagonalization with overlap
     ethr =  3.04E-07,  avg # of iterations =  3.0

     total cpu time spent up to now is       33.4 secs

     total energy              =    -145.71226836 Ry
     Harris-Foulkes estimate   =    -145.71234794 Ry
     estimated scf accuracy    <       0.00020123 Ry

     iteration #  3     ecut=    39.13 Ry     beta= 0.70
     Davidson diagonalization with overlap
     ethr =  3.04E-07,  avg # of iterations =  2.1

     total cpu time spent up to now is       34.2 secs

     total energy              =    -145.71228328 Ry
     Harris-Foulkes estimate   =    -145.71228767 Ry
     estimated scf accuracy    <       0.00002337 Ry

     iteration #  4     ecut=    39.13 Ry     beta= 0.70
     Davidson diagonalization with overlap
     ethr =  1.30E-07,  avg # of iterations =  1.0

     total cpu time spent up to now is       34.9 secs

     total energy              =    -145.71228125 Ry
     Harris-Foulkes estimate   =    -145.71228385 Ry
     estimated scf accuracy    <       0.00001218 Ry

     iteration #  5     ecut=    39.13 Ry     beta= 0.70
     Davidson diagonalization with overlap
     ethr =  6.77E-08,  avg # of iterations =  1.0

     total cpu time spent up to now is       35.6 secs

     total energy              =    -145.71228012 Ry
     Harris-Foulkes estimate   =    -145.71228167 Ry
     estimated scf accuracy    <       0.00000493 Ry

     iteration #  6     ecut=    39.13 Ry     beta= 0.70
     Davidson diagonalization with overlap
     ethr =  2.74E-08,  avg # of iterations =  1.0

     total cpu time spent up to now is       36.3 secs

     total energy              =    -145.71227973 Ry
     Harris-Foulkes estimate   =    -145.71228040 Ry
     estimated scf accuracy    <       0.00000122 Ry

     iteration #  7     ecut=    39.13 Ry     beta= 0.70
     Davidson diagonalization with overlap
     ethr =  6.80E-09,  avg # of iterations =  2.1

     total cpu time spent up to now is       37.1 secs

     End of self-consistent calculation

          k = 0.0000 0.0000 0.0000 (  1363 PWs)   bands (ev):

    -7.0075  -2.2695  -2.2695  -2.2690  -1.7633  -1.7633   5.4418   5.4432
     5.4432   6.4241  11.8157  11.8217  11.8217

          k =-0.2501 0.2501-0.2502 (  1375 PWs)   bands (ev):

    -6.7825  -2.1947  -2.1943  -2.0264  -1.7591  -1.7591   2.8669   5.0261
     5.0269   8.0845  11.5744  12.3335  12.3380

          k = 0.5002-0.5002 0.5004 (  1380 PWs)   bands (ev):

    -6.5558  -2.1434  -2.1431  -1.7235  -1.7234  -1.3768   0.8833   4.6551
     4.6556   8.3020  12.2992  12.3028  12.7588

          k = 0.2502 0.2501 0.2501 (  1375 PWs)   bands (ev):

    -6.7825  -2.1947  -2.1943  -2.0264  -1.7591  -1.7591   2.8669   5.0261
     5.0269   8.0845  11.5744  12.3335  12.3380

          k = 0.0001 0.5002-0.0001 (  1355 PWs)   bands (ev):

    -6.7096  -2.1063  -2.1023  -2.1018  -1.7851  -1.7173   3.0620   4.3732
     4.3751   8.9116  10.0982  13.4389  13.4414

          k = 0.7504-0.2501 0.7505 (  1374 PWs)   bands (ev):

    -6.4878  -2.0907  -2.0194  -1.8633  -1.7078  -1.3474   1.4509   3.3907
     4.0340   9.5121  10.8061  12.8649  13.7168

          k = 0.5003 0.0000 0.5003 (  1368 PWs)   bands (ev):

    -6.5602  -2.1114  -2.0951  -1.7961  -1.7764  -1.5187   1.8472   3.3169
     4.6370   9.6261  11.4189  12.0161  12.9880

          k =-0.5004-0.5002-0.5002 (  1380 PWs)   bands (ev):

    -6.5558  -2.1434  -2.1431  -1.7235  -1.7234  -1.3768   0.8833   4.6551
     4.6556   8.3020  12.2992  12.3028  12.7588

          k =-0.7505-0.2501-0.7504 (  1374 PWs)   bands (ev):

    -6.4878  -2.0907  -2.0194  -1.8633  -1.7078  -1.3474   1.4509   3.3907
     4.0340   9.5121  10.8061  12.8649  13.7168

          k =-0.0002-1.0005 0.0002 (  1362 PWs)   bands (ev):

    -6.4163  -2.0582  -1.9011  -1.9003  -1.6710  -1.3166   1.3741   3.4788
     3.4813   8.7933   9.6724  14.5056  16.1130

          k =-0.2501-0.2502 0.2501 (  1375 PWs)   bands (ev):

    -6.7825  -2.1947  -2.1943  -2.0264  -1.7591  -1.7591   2.8669   5.0261
     5.0269   8.0845  11.5744  12.3335  12.3380

          k =-0.5002-0.0001-0.0001 (  1355 PWs)   bands (ev):

    -6.7096  -2.1063  -2.1023  -2.1018  -1.7851  -1.7173   3.0620   4.3732
     4.3751   8.9116  10.0982  13.4389  13.4414

          k = 0.2501-0.7504 0.7505 (  1374 PWs)   bands (ev):

    -6.4878  -2.0907  -2.0194  -1.8633  -1.7078  -1.3474   1.4509   3.3907
     4.0340   9.5121  10.8062  12.8649  13.7168

          k =-0.0000-0.5003 0.5003 (  1368 PWs)   bands (ev):

    -6.5602  -2.1114  -2.0951  -1.7961  -1.7764  -1.5187   1.8472   3.3169
     4.6370   9.6261  11.4189  12.0161  12.9880

          k = 0.0001-0.0001 0.5002 (  1355 PWs)   bands (ev):

    -6.7096  -2.1063  -2.1023  -2.1018  -1.7851  -1.7173   3.0620   4.3732
     4.3751   8.9116  10.0982  13.4389  13.4414

          k =-0.2500 0.2500 0.2500 (  1375 PWs)   bands (ev):

    -6.7828  -2.1950  -2.1950  -2.0260  -1.7590  -1.7590   2.8657   5.0279
     5.0279   8.0856  11.5719  12.3376  12.3376

          k = 0.5003-0.5003 1.0006 (  1368 PWs)   bands (ev):

    -6.5605  -2.1116  -2.0956  -1.7962  -1.7763  -1.5190   1.8477   3.3167
     4.6382   9.6278  11.4186  12.0167  12.9911

          k = 0.2502-0.2502 0.7504 (  1374 PWs)   bands (ev):

    -6.4878  -2.0904  -2.0198  -1.8631  -1.7077  -1.3473   1.4501   3.3906
     4.0356   9.5141  10.8018  12.8633  13.7187

          k =-0.7505-0.7504-0.2501 (  1374 PWs)   bands (ev):

    -6.4878  -2.0907  -2.0194  -1.8633  -1.7078  -1.3474   1.4509   3.3907
     4.0340   9.5121  10.8062  12.8649  13.7168

          k =-1.0006-0.5003-0.5003 (  1368 PWs)   bands (ev):

    -6.5605  -2.1116  -2.0956  -1.7962  -1.7763  -1.5190   1.8477   3.3167
     4.6382   9.6278  11.4186  12.0167  12.9911

          k =-0.2503-1.2506 0.2503 (  1374 PWs)   bands (ev):

    -6.4881  -2.0908  -2.0200  -1.8632  -1.7078  -1.3477   1.4510   3.3905
     4.0364   9.5154  10.8037  12.8652  13.7200

          k =-0.5004-1.0005 0.0001 (  1384 PWs)   bands (ev):

    -6.4181  -2.0319  -2.0026  -1.8048  -1.7585  -1.1146   1.4136   3.0601
     3.1684  10.7201  10.8085  12.5205  13.2996

          k =-0.5003-0.5003 0.0000 (  1368 PWs)   bands (ev):

    -6.5602  -2.1114  -2.0951  -1.7961  -1.7764  -1.5187   1.8472   3.3169
     4.6370   9.6261  11.4189  12.0161  12.9880

          k =-0.7504-0.2502-0.2502 (  1374 PWs)   bands (ev):

    -6.4878  -2.0904  -2.0198  -1.8631  -1.7077  -1.3473   1.4501   3.3906
     4.0356   9.5141  10.8018  12.8633  13.7187

          k =-0.0001-1.0005 0.5004 (  1384 PWs)   bands (ev):

    -6.4181  -2.0319  -2.0026  -1.8048  -1.7585  -1.1146   1.4136   3.0601
     3.1684  10.7201  10.8085  12.5205  13.2996

          k =-0.2502-0.7504 0.2502 (  1374 PWs)   bands (ev):

    -6.4878  -2.0904  -2.0198  -1.8631  -1.7077  -1.3473   1.4501   3.3906
     4.0356   9.5141  10.8018  12.8633  13.7187

          k = 0.5002 0.5004-0.5002 (  1380 PWs)   bands (ev):

    -6.5558  -2.1434  -2.1431  -1.7235  -1.7234  -1.3768   0.8833   4.6551
     4.6556   8.3020  12.2992  12.3027  12.7588

          k = 0.2501 0.7505-0.7504 (  1374 PWs)   bands (ev):

    -6.4878  -2.0907  -2.0194  -1.8633  -1.7078  -1.3474   1.4509   3.3907
     4.0340   9.5121  10.8062  12.8649  13.7168

          k = 1.0005 0.0002 0.0002 (  1362 PWs)   bands (ev):

    -6.4163  -2.0582  -1.9011  -1.9003  -1.6710  -1.3166   1.3741   3.4788
     3.4813   8.7933   9.6724  14.5056  16.1129

          k = 0.7504 0.7505-0.2501 (  1374 PWs)   bands (ev):

    -6.4878  -2.0907  -2.0194  -1.8633  -1.7078  -1.3474   1.4509   3.3907
     4.0340   9.5121  10.8062  12.8649  13.7168

          k = 0.5003 1.0006-0.5003 (  1368 PWs)   bands (ev):

    -6.5605  -2.1116  -2.0956  -1.7962  -1.7763  -1.5190   1.8477   3.3167
     4.6382   9.6278  11.4186  12.0167  12.9911

          k = 1.2506 0.2503 0.2503 (  1374 PWs)   bands (ev):

    -6.4881  -2.0908  -2.0200  -1.8632  -1.7078  -1.3477   1.4510   3.3905
     4.0364   9.5154  10.8037  12.8652  13.7200

          k = 1.0005 0.5004 0.0001 (  1384 PWs)   bands (ev):

    -6.4181  -2.0319  -2.0026  -1.8048  -1.7585  -1.1146   1.4136   3.0601
     3.1684  10.7201  10.8085  12.5205  13.2996

          k =-0.0002 0.0002-1.0005 (  1362 PWs)   bands (ev):

    -6.4163  -2.0582  -1.9011  -1.9003  -1.6710  -1.3166   1.3741   3.4788
     3.4813   8.7933   9.6724  14.5056  16.1141

          k =-0.2503 0.2503-1.2506 (  1374 PWs)   bands (ev):

    -6.4881  -2.0908  -2.0200  -1.8632  -1.7078  -1.3477   1.4510   3.3905
     4.0364   9.5154  10.8037  12.8652  13.7200

          k = 0.5001-0.5001-0.5001 (  1380 PWs)   bands (ev):

    -6.5564  -2.1438  -2.1438  -1.7235  -1.7235  -1.3774   0.8835   4.6574
     4.6574   8.3044  12.3036  12.3036  12.7558

     the Fermi energy is     5.9434 ev

!    total energy              =    -145.71228003 Ry
     Harris-Foulkes estimate   =    -145.71228003 Ry
     estimated scf accuracy    <          2.5E-09 Ry

     convergence has been achieved in   7 iterations

     Forces acting on atoms (cartesian axes, Ry/au):

     atom    1 type  1   force =     0.00007937   -0.00008105   -0.00007857
     atom    2 type  2   force =    -0.00007937    0.00008105    0.00007857

     Total force =     0.000195     Total SCF correction =     0.000004


     Computing stress (Cartesian axis) and pressure

          total   stress  (Ry/bohr**3)                   (kbar)     P=        4.42
   0.00003006   0.00000110   0.00000110            4.42        0.16        0.16
   0.00000110   0.00003006  -0.00000110            0.16        4.42       -0.16
   0.00000110  -0.00000110   0.00003006            0.16       -0.16        4.42


     Entering Dynamics;  it =     4   time =  0.00300 pico-seconds

  new lattice vectors (alat unit) :
  -0.499738215   0.000261231   0.499738218
  -0.000261199   0.499738227   0.499738249
  -0.499738253   0.499738234   0.000261193
  new unit-cell volume =    331.9759 (a.u.)^3
  new positions in cryst coord
Cd      -0.000000080  -0.000000073  -0.000000051
S       -0.249999721   0.750000255  -0.249999822
  new positions in cart coord (alat unit)
Cd       0.000000065  -0.000000062  -0.000000076
S        0.249672989   0.249804021   0.249804101

     Ekin =     0.00011734 Ry    T =    2.2 K  Etot =  -145.62180426
     new unit-cell volume =    331.97585 a.u.^3 (    49.19375 Ang^3 )
     density =      4.87683 g/cm^3

CELL_PARAMETERS (alat= 11.00009582)
  -0.499738215   0.000261231   0.499738218
  -0.000261199   0.499738227   0.499738249
  -0.499738253   0.499738234   0.000261193

ATOMIC_POSITIONS (alat)
Cd            0.0000000651       -0.0000000617       -0.0000000761
S             0.2496729895        0.2498040206        0.2498041012



     Writing output data file ./outdir_4gpa_/pwscf.save/
     NEW-OLD atomic charge density approx. for the potential
     extrapolated charge   17.98218, renormalised to   18.00000

     total cpu time spent up to now is       41.6 secs

     Self-consistent Calculation

     iteration #  1     ecut=    39.13 Ry     beta= 0.70
     Davidson diagonalization with overlap
     ethr =  1.00E-06,  avg # of iterations =  2.0

     total cpu time spent up to now is       42.4 secs

     total energy              =    -145.71213548 Ry
     Harris-Foulkes estimate   =    -145.75819119 Ry
     estimated scf accuracy    <       0.00009257 Ry

     iteration #  2     ecut=    39.13 Ry     beta= 0.70
     Davidson diagonalization with overlap
     ethr =  5.14E-07,  avg # of iterations =  3.0

     total cpu time spent up to now is       43.4 secs

     total energy              =    -145.71225012 Ry
     Harris-Foulkes estimate   =    -145.71238778 Ry
     estimated scf accuracy    <       0.00035167 Ry

     iteration #  3     ecut=    39.13 Ry     beta= 0.70
     Davidson diagonalization with overlap
     ethr =  5.14E-07,  avg # of iterations =  2.1

     total cpu time spent up to now is       44.2 secs

     total energy              =    -145.71227469 Ry
     Harris-Foulkes estimate   =    -145.71228310 Ry
     estimated scf accuracy    <       0.00004268 Ry

     iteration #  4     ecut=    39.13 Ry     beta= 0.70
     Davidson diagonalization with overlap
     ethr =  2.37E-07,  avg # of iterations =  1.0

     total cpu time spent up to now is       44.9 secs

     total energy              =    -145.71227204 Ry
     Harris-Foulkes estimate   =    -145.71227576 Ry
     estimated scf accuracy    <       0.00002143 Ry

     iteration #  5     ecut=    39.13 Ry     beta= 0.70
     Davidson diagonalization with overlap
     ethr =  1.19E-07,  avg # of iterations =  1.0

     total cpu time spent up to now is       45.6 secs

     total energy              =    -145.71226850 Ry
     Harris-Foulkes estimate   =    -145.71227262 Ry
     estimated scf accuracy    <       0.00001036 Ry

     iteration #  6     ecut=    39.13 Ry     beta= 0.70
     Davidson diagonalization with overlap
     ethr =  5.75E-08,  avg # of iterations =  2.0

     total cpu time spent up to now is       46.3 secs

     total energy              =    -145.71226929 Ry
     Harris-Foulkes estimate   =    -145.71226941 Ry
     estimated scf accuracy    <       0.00000136 Ry

     iteration #  7     ecut=    39.13 Ry     beta= 0.70
     Davidson diagonalization with overlap
     ethr =  7.57E-09,  avg # of iterations =  2.0

     total cpu time spent up to now is       47.1 secs

     End of self-consistent calculation

          k = 0.0000 0.0000 0.0000 (  1363 PWs)   bands (ev):

    -7.0006  -2.2561  -2.2561  -2.2552  -1.7478  -1.7478   5.4550   5.4575
     5.4575   6.4395  11.8258  11.8362  11.8362

          k =-0.2502 0.2502-0.2503 (  1375 PWs)   bands (ev):

    -6.7750  -2.1809  -2.1803  -2.0128  -1.7437  -1.7436   2.8787   5.0385
     5.0400   8.0996  11.5891  12.3452  12.3529

          k = 0.5004-0.5004 0.5007 (  1380 PWs)   bands (ev):

    -6.5476  -2.1294  -2.1290  -1.7079  -1.7077  -1.3605   0.8903   4.6668
     4.6676   8.3164  12.3108  12.3169  12.7753

          k = 0.2503 0.2502 0.2502 (  1375 PWs)   bands (ev):

    -6.7750  -2.1809  -2.1803  -2.0128  -1.7437  -1.7436   2.8787   5.0385
     5.0400   8.0996  11.5891  12.3452  12.3529

          k = 0.0001 0.5004-0.0001 (  1355 PWs)   bands (ev):

    -6.7018  -2.0930  -2.0884  -2.0875  -1.7699  -1.7017   3.0747   4.3841
     4.3874   8.9268  10.1114  13.4530  13.4574

          k = 0.7507-0.2502 0.7509 (  1374 PWs)   bands (ev):

    -6.4794  -2.0767  -2.0047  -1.8484  -1.6921  -1.3314   1.4600   3.4011
     4.0443   9.5255  10.8223  12.8796  13.7307

          k = 0.5005 0.0000 0.5005 (  1368 PWs)   bands (ev):

    -6.5520  -2.0973  -2.0807  -1.7810  -1.7611  -1.5033   1.8570   3.3269
     4.6488   9.6421  11.4320  12.0306  13.0010

          k =-0.5007-0.5004-0.5004 (  1380 PWs)   bands (ev):

    -6.5476  -2.1294  -2.1290  -1.7079  -1.7077  -1.3605   0.8903   4.6668
     4.6676   8.3164  12.3108  12.3169  12.7753

          k =-0.7509-0.2502-0.7507 (  1374 PWs)   bands (ev):

    -6.4794  -2.0767  -2.0047  -1.8484  -1.6921  -1.3314   1.4600   3.4011
     4.0443   9.5255  10.8223  12.8796  13.7307

          k =-0.0003-1.0008 0.0003 (  1362 PWs)   bands (ev):

    -6.4078  -2.0444  -1.8864  -1.8851  -1.6552  -1.3006   1.3836   3.4877
     3.4920   8.8048   9.6871  14.5229  16.1319

          k =-0.2502-0.2503 0.2502 (  1375 PWs)   bands (ev):

    -6.7750  -2.1809  -2.1803  -2.0128  -1.7437  -1.7436   2.8787   5.0385
     5.0400   8.0996  11.5891  12.3452  12.3529

          k =-0.5004-0.0001-0.0001 (  1355 PWs)   bands (ev):

    -6.7018  -2.0930  -2.0884  -2.0875  -1.7699  -1.7017   3.0747   4.3841
     4.3874   8.9268  10.1114  13.4530  13.4574

          k = 0.2502-0.7507 0.7509 (  1374 PWs)   bands (ev):

    -6.4794  -2.0767  -2.0047  -1.8484  -1.6921  -1.3314   1.4600   3.4011
     4.0443   9.5255  10.8223  12.8796  13.7307

          k =-0.0000-0.5005 0.5005 (  1368 PWs)   bands (ev):

    -6.5520  -2.0973  -2.0807  -1.7810  -1.7611  -1.5033   1.8571   3.3269
     4.6488   9.6421  11.4320  12.0306  13.0010

          k = 0.0001-0.0001 0.5004 (  1355 PWs)   bands (ev):

    -6.7018  -2.0930  -2.0884  -2.0875  -1.7699  -1.7017   3.0747   4.3841
     4.3874   8.9268  10.1114  13.4530  13.4574

          k =-0.2501 0.2501 0.2501 (  1375 PWs)   bands (ev):

    -6.7755  -2.1814  -2.1814  -2.0121  -1.7435  -1.7435   2.8766   5.0417
     5.0417   8.1015  11.5848  12.3522  12.3522

          k = 0.5005-0.5005 1.0010 (  1368 PWs)   bands (ev):

    -6.5525  -2.0976  -2.0816  -1.7811  -1.7608  -1.5038   1.8580   3.3266
     4.6509   9.6451  11.4314  12.0316  13.0063

          k = 0.2503-0.2503 0.7507 (  1374 PWs)   bands (ev):

    -6.4794  -2.0762  -2.0055  -1.8481  -1.6919  -1.3313   1.4585   3.4008
     4.0469   9.5290  10.8149  12.8770  13.7338

          k =-0.7509-0.7507-0.2502 (  1374 PWs)   bands (ev):

    -6.4794  -2.0767  -2.0047  -1.8484  -1.6921  -1.3314   1.4600   3.4011
     4.0443   9.5255  10.8223  12.8796  13.7307

          k =-1.0010-0.5005-0.5005 (  1368 PWs)   bands (ev):

    -6.5525  -2.0976  -2.0816  -1.7811  -1.7608  -1.5038   1.8580   3.3266
     4.6509   9.6451  11.4314  12.0316  13.0063

          k =-0.2505-1.2511 0.2505 (  1374 PWs)   bands (ev):

    -6.4799  -2.0769  -2.0058  -1.8482  -1.6921  -1.3319   1.4601   3.4007
     4.0484   9.5312  10.8181  12.8802  13.7361

          k =-0.5007-1.0009 0.0001 (  1384 PWs)   bands (ev):

    -6.4096  -2.0178  -1.9879  -1.7894  -1.7431  -1.0977   1.4223   3.0687
     3.1785  10.7331  10.8264  12.5356  13.3125

          k =-0.5005-0.5005 0.0000 (  1368 PWs)   bands (ev):

    -6.5520  -2.0973  -2.0807  -1.7810  -1.7611  -1.5033   1.8571   3.3269
     4.6488   9.6421  11.4320  12.0306  13.0010

          k =-0.7507-0.2503-0.2503 (  1374 PWs)   bands (ev):

    -6.4794  -2.0762  -2.0055  -1.8481  -1.6919  -1.3313   1.4585   3.4008
     4.0469   9.5290  10.8149  12.8770  13.7338

          k =-0.0001-1.0009 0.5007 (  1384 PWs)   bands (ev):

    -6.4096  -2.0178  -1.9879  -1.7894  -1.7431  -1.0977   1.4223   3.0687
     3.1785  10.7331  10.8264  12.5356  13.3125

          k =-0.2503-0.7507 0.2503 (  1374 PWs)   bands (ev):

    -6.4794  -2.0762  -2.0055  -1.8481  -1.6919  -1.3313   1.4585   3.4008
     4.0469   9.5290  10.8149  12.8770  13.7338

          k = 0.5004 0.5007-0.5004 (  1380 PWs)   bands (ev):

    -6.5476  -2.1294  -2.1290  -1.7079  -1.7077  -1.3605   0.8903   4.6668
     4.6676   8.3164  12.3108  12.3169  12.7753

          k = 0.2502 0.7509-0.7507 (  1374 PWs)   bands (ev):

    -6.4794  -2.0767  -2.0047  -1.8484  -1.6921  -1.3314   1.4600   3.4011
     4.0443   9.5255  10.8223  12.8796  13.7307

          k = 1.0008 0.0003 0.0003 (  1362 PWs)   bands (ev):

    -6.4078  -2.0444  -1.8864  -1.8851  -1.6552  -1.3006   1.3836   3.4877
     3.4920   8.8048   9.6871  14.5229  16.1318

          k = 0.7507 0.7509-0.2502 (  1374 PWs)   bands (ev):

    -6.4794  -2.0767  -2.0047  -1.8484  -1.6921  -1.3314   1.4600   3.4011
     4.0443   9.5255  10.8223  12.8796  13.7307

          k = 0.5005 1.0010-0.5005 (  1368 PWs)   bands (ev):

    -6.5525  -2.0976  -2.0816  -1.7811  -1.7608  -1.5038   1.8580   3.3266
     4.6509   9.6451  11.4314  12.0316  13.0063

          k = 1.2511 0.2505 0.2505 (  1374 PWs)   bands (ev):

    -6.4799  -2.0769  -2.0058  -1.8482  -1.6921  -1.3319   1.4601   3.4007
     4.0484   9.5312  10.8181  12.8802  13.7361

          k = 1.0009 0.5007 0.0001 (  1384 PWs)   bands (ev):

    -6.4096  -2.0178  -1.9879  -1.7894  -1.7431  -1.0977   1.4223   3.0687
     3.1785  10.7331  10.8264  12.5356  13.3125

          k =-0.0003 0.0003-1.0008 (  1362 PWs)   bands (ev):

    -6.4078  -2.0444  -1.8864  -1.8851  -1.6552  -1.3006   1.3836   3.4877
     3.4920   8.8048   9.6871  14.5229  16.1338

          k =-0.2505 0.2505-1.2511 (  1374 PWs)   bands (ev):

    -6.4799  -2.0769  -2.0058  -1.8482  -1.6921  -1.3319   1.4601   3.4007
     4.0484   9.5312  10.8181  12.8802  13.7361

          k = 0.5001-0.5001-0.5001 (  1380 PWs)   bands (ev):

    -6.5486  -2.1301  -2.1301  -1.7079  -1.7079  -1.3616   0.8907   4.6708
     4.6708   8.3206  12.3183  12.3183  12.7701

     the Fermi energy is     5.9580 ev

!    total energy              =    -145.71226851 Ry
     Harris-Foulkes estimate   =    -145.71226938 Ry
     estimated scf accuracy    <       0.00000095 Ry

     convergence has been achieved in   7 iterations

     Forces acting on atoms (cartesian axes, Ry/au):

     atom    1 type  1   force =     0.00013435   -0.00013362   -0.00013764
     atom    2 type  2   force =    -0.00013435    0.00013362    0.00013764

     Total force =     0.000331     Total SCF correction =     0.000003


     Computing stress (Cartesian axis) and pressure

          total   stress  (Ry/bohr**3)                   (kbar)     P=       -2.12
  -0.00001443   0.00000191   0.00000190           -2.12        0.28        0.28
   0.00000191  -0.00001443  -0.00000190            0.28       -2.12       -0.28
   0.00000190  -0.00000190  -0.00001444            0.28       -0.28       -2.12


     Entering Dynamics;  it =     5   time =  0.00400 pico-seconds

  new lattice vectors (alat unit) :
  -0.499594641   0.000403986   0.499594643
  -0.000403947   0.499594656   0.499594682
  -0.499594687   0.499594664   0.000403940
  new unit-cell volume =    331.5475 (a.u.)^3
  new positions in cryst coord
Cd      -0.000000181  -0.000000173  -0.000000144
S       -0.249999364   0.750000607  -0.249999495
  new positions in cart coord (alat unit)
Cd       0.000000163  -0.000000159  -0.000000177
S        0.249493801   0.249696886   0.249696987

     Ekin =     0.00020158 Ry    T =    3.4 K  Etot =  -145.62179788
     new unit-cell volume =    331.54747 a.u.^3 (    49.13026 Ang^3 )
     density =      4.88313 g/cm^3

CELL_PARAMETERS (alat= 11.00009582)
  -0.499594641   0.000403986   0.499594643
  -0.000403947   0.499594656   0.499594682
  -0.499594687   0.499594664   0.000403940

ATOMIC_POSITIONS (alat)
Cd            0.0000001626       -0.0000001585       -0.0000001773
S             0.2494938013        0.2496968857        0.2496969867



     Writing output data file ./outdir_4gpa_/pwscf.save/
     NEW-OLD atomic charge density approx. for the potential
     extrapolated charge   17.97675, renormalised to   18.00000

     total cpu time spent up to now is       51.5 secs

     Self-consistent Calculation

     iteration #  1     ecut=    39.13 Ry     beta= 0.70
     Davidson diagonalization with overlap
     ethr =  1.00E-06,  avg # of iterations =  2.0

     total cpu time spent up to now is       52.4 secs

     total energy              =    -145.71198784 Ry
     Harris-Foulkes estimate   =    -145.77214653 Ry
     estimated scf accuracy    <       0.00020213 Ry

     iteration #  2     ecut=    39.13 Ry     beta= 0.70
     Davidson diagonalization with overlap
     ethr =  1.12E-06,  avg # of iterations =  3.0

     total cpu time spent up to now is       53.4 secs

     total energy              =    -145.71220555 Ry
     Harris-Foulkes estimate   =    -145.71248170 Ry
     estimated scf accuracy    <       0.00068084 Ry

     iteration #  3     ecut=    39.13 Ry     beta= 0.70
     Davidson diagonalization with overlap
     ethr =  1.12E-06,  avg # of iterations =  2.1

     total cpu time spent up to now is       54.2 secs

     total energy              =    -145.71226051 Ry
     Harris-Foulkes estimate   =    -145.71227491 Ry
     estimated scf accuracy    <       0.00006987 Ry

     iteration #  4     ecut=    39.13 Ry     beta= 0.70
     Davidson diagonalization with overlap
     ethr =  3.88E-07,  avg # of iterations =  1.0

     total cpu time spent up to now is       54.8 secs

     total energy              =    -145.71225866 Ry
     Harris-Foulkes estimate   =    -145.71226273 Ry
     estimated scf accuracy    <       0.00003358 Ry

     iteration #  5     ecut=    39.13 Ry     beta= 0.70
     Davidson diagonalization with overlap
     ethr =  1.87E-07,  avg # of iterations =  1.0

     total cpu time spent up to now is       55.5 secs

     total energy              =    -145.71224936 Ry
     Harris-Foulkes estimate   =    -145.71225936 Ry
     estimated scf accuracy    <       0.00002063 Ry

     iteration #  6     ecut=    39.13 Ry     beta= 0.70
     Davidson diagonalization with overlap
     ethr =  1.15E-07,  avg # of iterations =  2.0

     total cpu time spent up to now is       56.3 secs

     End of self-consistent calculation

          k = 0.0000 0.0000 0.0000 (  1363 PWs)   bands (ev):

    -6.9928  -2.2459  -2.2459  -2.2445  -1.7357  -1.7357   5.4699   5.4737
     5.4737   6.4584  11.8380  11.8540  11.8540

          k =-0.2503 0.2503-0.2505 (  1375 PWs)   bands (ev):

    -6.7666  -2.1704  -2.1695  -2.0021  -1.7316  -1.7315   2.8919   5.0526
     5.0549   8.1182  11.6073  12.3593  12.3712

          k = 0.5006-0.5006 0.5010 (  1380 PWs)   bands (ev):

    -6.5385  -2.1186  -2.1180  -1.6957  -1.6954  -1.3471   0.8984   4.6801
     4.6813   8.3339  12.3247  12.3342  12.7959

          k = 0.2505 0.2503 0.2503 (  1375 PWs)   bands (ev):

    -6.7666  -2.1704  -2.1695  -2.0021  -1.7316  -1.7315   2.8919   5.0526
     5.0549   8.1182  11.6073  12.3593  12.3712

          k = 0.0002 0.5006-0.0002 (  1355 PWs)   bands (ev):

    -6.6933  -2.0827  -2.0777  -2.0763  -1.7579  -1.6894   3.0889   4.3966
     4.4017   8.9455  10.1274  13.4702  13.4770

          k = 0.7511-0.2503 0.7513 (  1374 PWs)   bands (ev):

    -6.4703  -2.0659  -1.9933  -1.8369  -1.6798  -1.3181   1.4702   3.4129
     4.0560   9.5417  10.8422  12.8979  13.7476

          k = 0.5008 0.0000 0.5008 (  1368 PWs)   bands (ev):

    -6.5429  -2.0864  -2.0696  -1.7692  -1.7491  -1.4907   1.8680   3.3384
     4.6622   9.6614  11.4483  12.0484  13.0168

          k =-0.5010-0.5006-0.5006 (  1380 PWs)   bands (ev):

    -6.5385  -2.1186  -2.1180  -1.6957  -1.6954  -1.3471   0.8984   4.6801
     4.6813   8.3339  12.3247  12.3342  12.7959

          k =-0.7513-0.2503-0.7511 (  1374 PWs)   bands (ev):

    -6.4703  -2.0659  -1.9933  -1.8369  -1.6798  -1.3181   1.4702   3.4129
     4.0560   9.5417  10.8422  12.8979  13.7476

          k =-0.0004-1.0012 0.0004 (  1362 PWs)   bands (ev):

    -6.3985  -2.0338  -1.8751  -1.8732  -1.6427  -1.2873   1.3940   3.4979
     3.5046   8.8190   9.7047  14.5446  16.1552

          k =-0.2503-0.2505 0.2503 (  1375 PWs)   bands (ev):

    -6.7666  -2.1704  -2.1695  -2.0021  -1.7316  -1.7315   2.8919   5.0526
     5.0549   8.1182  11.6073  12.3593  12.3712

          k =-0.5006-0.0002-0.0002 (  1355 PWs)   bands (ev):

    -6.6933  -2.0827  -2.0777  -2.0763  -1.7579  -1.6894   3.0889   4.3966
     4.4017   8.9455  10.1274  13.4702  13.4770

          k = 0.2503-0.7511 0.7513 (  1374 PWs)   bands (ev):

    -6.4703  -2.0659  -1.9933  -1.8369  -1.6798  -1.3181   1.4702   3.4129
     4.0560   9.5417  10.8422  12.8979  13.7476

          k =-0.0000-0.5008 0.5008 (  1368 PWs)   bands (ev):

    -6.5429  -2.0864  -2.0696  -1.7692  -1.7491  -1.4907   1.8680   3.3384
     4.6622   9.6614  11.4483  12.0484  13.0168

          k = 0.0002-0.0002 0.5006 (  1355 PWs)   bands (ev):

    -6.6933  -2.0827  -2.0777  -2.0763  -1.7579  -1.6894   3.0889   4.3966
     4.4017   8.9455  10.1274  13.4702  13.4770

          k =-0.2501 0.2501 0.2501 (  1375 PWs)   bands (ev):

    -6.7674  -2.1712  -2.1712  -2.0011  -1.7314  -1.7314   2.8887   5.0576
     5.0576   8.1211  11.6006  12.3702  12.3702

          k = 0.5008-0.5008 1.0016 (  1368 PWs)   bands (ev):

    -6.5438  -2.0868  -2.0709  -1.7694  -1.7487  -1.4914   1.8695   3.3379
     4.6655   9.6661  11.4474  12.0500  13.0251

          k = 0.2505-0.2505 0.7511 (  1374 PWs)   bands (ev):

    -6.4703  -2.0652  -1.9945  -1.8364  -1.6796  -1.3180   1.4679   3.4125
     4.0601   9.5471  10.8306  12.8938  13.7524

          k =-0.7513-0.7511-0.2503 (  1374 PWs)   bands (ev):

    -6.4703  -2.0659  -1.9933  -1.8369  -1.6798  -1.3181   1.4702   3.4129
     4.0560   9.5417  10.8422  12.8979  13.7476

          k =-1.0016-0.5008-0.5008 (  1368 PWs)   bands (ev):

    -6.5438  -2.0868  -2.0709  -1.7694  -1.7487  -1.4914   1.8695   3.3379
     4.6655   9.6661  11.4474  12.0500  13.0251

          k =-0.2507-1.2517 0.2507 (  1374 PWs)   bands (ev):

    -6.4711  -2.0662  -1.9950  -1.8366  -1.6799  -1.3190   1.4703   3.4123
     4.0623   9.5505  10.8356  12.8989  13.7560

          k =-0.5010-1.0014 0.0002 (  1384 PWs)   bands (ev):

    -6.4003  -2.0069  -1.9766  -1.7775  -1.7311  -1.0834   1.4321   3.0788
     3.1898  10.7490  10.8480  12.5544  13.3285

          k =-0.5008-0.5008 0.0000 (  1368 PWs)   bands (ev):

    -6.5429  -2.0864  -2.0696  -1.7692  -1.7491  -1.4907   1.8680   3.3384
     4.6622   9.6614  11.4483  12.0484  13.0168

          k =-0.7511-0.2505-0.2505 (  1374 PWs)   bands (ev):

    -6.4703  -2.0652  -1.9945  -1.8364  -1.6796  -1.3180   1.4679   3.4125
     4.0601   9.5471  10.8306  12.8938  13.7524

          k =-0.0002-1.0014 0.5010 (  1384 PWs)   bands (ev):

    -6.4003  -2.0069  -1.9766  -1.7775  -1.7311  -1.0834   1.4321   3.0788
     3.1898  10.7490  10.8480  12.5544  13.3285

          k =-0.2505-0.7511 0.2505 (  1374 PWs)   bands (ev):

    -6.4703  -2.0652  -1.9945  -1.8364  -1.6796  -1.3180   1.4679   3.4125
     4.0601   9.5471  10.8306  12.8938  13.7524

          k = 0.5006 0.5010-0.5006 (  1380 PWs)   bands (ev):

    -6.5385  -2.1186  -2.1180  -1.6957  -1.6954  -1.3471   0.8984   4.6801
     4.6813   8.3339  12.3247  12.3342  12.7959

          k = 0.2503 0.7513-0.7511 (  1374 PWs)   bands (ev):

    -6.4703  -2.0659  -1.9933  -1.8369  -1.6798  -1.3181   1.4702   3.4129
     4.0560   9.5417  10.8422  12.8979  13.7476

          k = 1.0012 0.0004 0.0004 (  1362 PWs)   bands (ev):

    -6.3985  -2.0338  -1.8751  -1.8732  -1.6427  -1.2873   1.3940   3.4979
     3.5046   8.8190   9.7047  14.5446  16.1550

          k = 0.7511 0.7513-0.2503 (  1374 PWs)   bands (ev):

    -6.4703  -2.0659  -1.9933  -1.8369  -1.6798  -1.3181   1.4702   3.4129
     4.0560   9.5417  10.8422  12.8979  13.7476

          k = 0.5008 1.0016-0.5008 (  1368 PWs)   bands (ev):

    -6.5437  -2.0868  -2.0709  -1.7694  -1.7487  -1.4914   1.8695   3.3379
     4.6655   9.6661  11.4474  12.0500  13.0251

          k = 1.2517 0.2507 0.2507 (  1374 PWs)   bands (ev):

    -6.4711  -2.0662  -1.9950  -1.8366  -1.6799  -1.3190   1.4703   3.4123
     4.0623   9.5505  10.8356  12.8989  13.7560

          k = 1.0014 0.5010 0.0002 (  1384 PWs)   bands (ev):

    -6.4003  -2.0069  -1.9766  -1.7775  -1.7311  -1.0834   1.4321   3.0788
     3.1898  10.7490  10.8480  12.5544  13.3285

          k =-0.0004 0.0004-1.0012 (  1362 PWs)   bands (ev):

    -6.3985  -2.0338  -1.8751  -1.8732  -1.6427  -1.2873   1.3940   3.4979
     3.5046   8.8190   9.7047  14.5446  16.1581

          k =-0.2507 0.2507-1.2517 (  1374 PWs)   bands (ev):

    -6.4711  -2.0662  -1.9950  -1.8366  -1.6799  -1.3190   1.4703   3.4123
     4.0623   9.5505  10.8356  12.8989  13.7560

          k = 0.5002-0.5002-0.5002 (  1380 PWs)   bands (ev):

    -6.5400  -2.1197  -2.1197  -1.6957  -1.6957  -1.3488   0.8990   4.6862
     4.6862   8.3405  12.3365  12.3365  12.7879

     the Fermi energy is     5.9754 ev

!    total energy              =    -145.71225207 Ry
     Harris-Foulkes estimate   =    -145.71225257 Ry
     estimated scf accuracy    <       0.00000054 Ry

     convergence has been achieved in   6 iterations

     Forces acting on atoms (cartesian axes, Ry/au):

     atom    1 type  1   force =     0.00021303   -0.00021294   -0.00021338
     atom    2 type  2   force =    -0.00021303    0.00021294    0.00021338

     Total force =     0.000522     Total SCF correction =     0.000006


     Computing stress (Cartesian axis) and pressure

          total   stress  (Ry/bohr**3)                   (kbar)     P=        0.53
   0.00000361   0.00000295   0.00000295            0.53        0.43        0.43
   0.00000295   0.00000362  -0.00000295            0.43        0.53       -0.43
   0.00000295  -0.00000295   0.00000361            0.43       -0.43        0.53


     Entering Dynamics;  it =     6   time =  0.00500 pico-seconds

  new lattice vectors (alat unit) :
  -0.499419638   0.000577503   0.499419640
  -0.000577459   0.499419657   0.499419684
  -0.499419692   0.499419666   0.000577450
  new unit-cell volume =    331.0262 (a.u.)^3
  new positions in cryst coord
Cd      -0.000000364  -0.000000355  -0.000000318
S       -0.249998723   0.750001243  -0.249998886
  new positions in cart coord (alat unit)
Cd       0.000000341  -0.000000336  -0.000000359
S        0.249275543   0.249566629   0.249566750

     Ekin =     0.00032350 Ry    T =    5.0 K  Etot =  -145.62177601
     new unit-cell volume =    331.02623 a.u.^3 (    49.05303 Ang^3 )
     density =      4.89082 g/cm^3

CELL_PARAMETERS (alat= 11.00009582)
  -0.499419638   0.000577503   0.499419640
  -0.000577459   0.499419657   0.499419684
  -0.499419692   0.499419666   0.000577450

ATOMIC_POSITIONS (alat)
Cd            0.0000003409       -0.0000003361       -0.0000003593
S             0.2492755434        0.2495666288        0.2495667504



     Writing output data file ./outdir_4gpa_/pwscf.save/
     NEW-OLD atomic charge density approx. for the potential
     extrapolated charge   17.97166, renormalised to   18.00000

     total cpu time spent up to now is       61.3 secs

     Self-consistent Calculation

     iteration #  1     ecut=    39.13 Ry     beta= 0.70
     Davidson diagonalization with overlap
     ethr =  1.00E-06,  avg # of iterations =  2.1

     total cpu time spent up to now is       62.1 secs

     total energy              =    -145.71185739 Ry
     Harris-Foulkes estimate   =    -145.78514548 Ry
     estimated scf accuracy    <       0.00027384 Ry

     iteration #  2     ecut=    39.13 Ry     beta= 0.70
     Davidson diagonalization with overlap
     ethr =  1.52E-06,  avg # of iterations =  3.0

     total cpu time spent up to now is       63.2 secs

     total energy              =    -145.71216711 Ry
     Harris-Foulkes estimate   =    -145.71255407 Ry
     estimated scf accuracy    <       0.00096684 Ry

     iteration #  3     ecut=    39.13 Ry     beta= 0.70
     Davidson diagonalization with overlap
     ethr =  1.52E-06,  avg # of iterations =  2.1

     total cpu time spent up to now is       64.0 secs

     total energy              =    -145.71224270 Ry
     Harris-Foulkes estimate   =    -145.71226288 Ry
     estimated scf accuracy    <       0.00010507 Ry

     iteration #  4     ecut=    39.13 Ry     beta= 0.70
     Davidson diagonalization with overlap
     ethr =  5.84E-07,  avg # of iterations =  1.0

     total cpu time spent up to now is       64.7 secs

     total energy              =    -145.71223412 Ry
     Harris-Foulkes estimate   =    -145.71224547 Ry
     estimated scf accuracy    <       0.00005395 Ry

     iteration #  5     ecut=    39.13 Ry     beta= 0.70
     Davidson diagonalization with overlap
     ethr =  3.00E-07,  avg # of iterations =  1.0

     total cpu time spent up to now is       65.3 secs

     total energy              =    -145.71222893 Ry
     Harris-Foulkes estimate   =    -145.71223602 Ry
     estimated scf accuracy    <       0.00002195 Ry

     iteration #  6     ecut=    39.13 Ry     beta= 0.70
     Davidson diagonalization with overlap
     ethr =  1.22E-07,  avg # of iterations =  1.1

     total cpu time spent up to now is       66.0 secs

     total energy              =    -145.71222769 Ry
     Harris-Foulkes estimate   =    -145.71223028 Ry
     estimated scf accuracy    <       0.00000516 Ry

     iteration #  7     ecut=    39.13 Ry     beta= 0.70
     Davidson diagonalization with overlap
     ethr =  2.87E-08,  avg # of iterations =  2.0

     total cpu time spent up to now is       66.8 secs

     End of self-consistent calculation

          k = 0.0000 0.0000 0.0000 (  1363 PWs)   bands (ev):

    -6.9823  -2.2348  -2.2348  -2.2328  -1.7225  -1.7225   5.4890   5.4945
     5.4945   6.4815  11.8526  11.8756  11.8756

          k =-0.2504 0.2504-0.2507 (  1375 PWs)   bands (ev):

    -6.7552  -2.1589  -2.1576  -1.9904  -1.7185  -1.7182   2.9084   5.0706
     5.0739   8.1409  11.6297  12.3764  12.3934

          k = 0.5009-0.5009 0.5015 (  1380 PWs)   bands (ev):

    -6.5264  -2.1068  -2.1060  -1.6823  -1.6820  -1.3321   0.9086   4.6971
     4.6988   8.3550  12.3417  12.3552  12.8214

          k = 0.2507 0.2504 0.2504 (  1375 PWs)   bands (ev):

    -6.7552  -2.1589  -2.1576  -1.9904  -1.7185  -1.7182   2.9084   5.0706
     5.0739   8.1409  11.6297  12.3764  12.3934

          k = 0.0003 0.5009-0.0003 (  1355 PWs)   bands (ev):

    -6.6818  -2.0713  -2.0661  -2.0641  -1.7449  -1.6760   3.1065   4.4125
     4.4199   8.9686  10.1468  13.4913  13.5010

          k = 0.7516-0.2504 0.7519 (  1374 PWs)   bands (ev):

    -6.4580  -2.0541  -1.9808  -1.8243  -1.6664  -1.3033   1.4828   3.4278
     4.0710   9.5614  10.8665  12.9204  13.7684

          k = 0.5012 0.0000 0.5012 (  1368 PWs)   bands (ev):

    -6.5308  -2.0746  -2.0573  -1.7563  -1.7361  -1.4767   1.8816   3.3529
     4.6793   9.6851  11.4682  12.0704  13.0361

          k =-0.5015-0.5009-0.5009 (  1380 PWs)   bands (ev):

    -6.5264  -2.1068  -2.1060  -1.6823  -1.6820  -1.3321   0.9086   4.6971
     4.6988   8.3550  12.3417  12.3552  12.8214

          k =-0.7519-0.2504-0.7516 (  1374 PWs)   bands (ev):

    -6.4580  -2.0541  -1.9808  -1.8243  -1.6664  -1.3033   1.4828   3.4278
     4.0710   9.5614  10.8665  12.9204  13.7684

          k =-0.0006-1.0017 0.0006 (  1362 PWs)   bands (ev):

    -6.3861  -2.0221  -1.8629  -1.8601  -1.6292  -1.2723   1.4067   3.5111
     3.5207   8.8360   9.7261  14.5715  16.1837

          k =-0.2504-0.2507 0.2504 (  1375 PWs)   bands (ev):

    -6.7552  -2.1589  -2.1576  -1.9904  -1.7185  -1.7182   2.9084   5.0706
     5.0739   8.1409  11.6297  12.3764  12.3934

          k =-0.5009-0.0003-0.0003 (  1355 PWs)   bands (ev):

    -6.6818  -2.0713  -2.0661  -2.0641  -1.7449  -1.6760   3.1065   4.4125
     4.4199   8.9686  10.1468  13.4913  13.5010

          k = 0.2504-0.7516 0.7519 (  1374 PWs)   bands (ev):

    -6.4580  -2.0541  -1.9808  -1.8243  -1.6664  -1.3033   1.4828   3.4278
     4.0710   9.5614  10.8665  12.9204  13.7684

          k =-0.0000-0.5012 0.5012 (  1368 PWs)   bands (ev):

[...]
     5.2718  10.5028  12.0813  12.7961  13.7645

          k = 0.2573-0.2573 0.7663 (  1374 PWs)   bands (ev):

    -6.0816  -1.6004  -1.5272  -1.3424  -1.1557  -0.7580   1.8612   3.8916
     4.6075  10.2624  11.4679  13.5649  14.4856

          k =-0.7692-0.7663-0.2545 (  1374 PWs)   bands (ev):

    -6.0819  -1.6095  -1.5100  -1.3481  -1.1596  -0.7611   1.8937   3.9041
     4.5436  10.1777  11.6374  13.6292  14.4277

          k =-1.0236-0.5118-0.5118 (  1368 PWs)   bands (ev):

    -6.1713  -1.6311  -1.6162  -1.2735  -1.2363  -0.9728   2.3424   3.8040
     5.2718  10.5028  12.0813  12.7961  13.7645

          k =-0.2602-1.2753 0.2602 (  1374 PWs)   bands (ev):

    -6.0929  -1.6134  -1.5339  -1.3443  -1.1609  -0.7746   1.8870   3.8982
     4.6384  10.3087  11.5433  13.6514  14.5447

          k =-0.5147-1.0208 0.0029 (  1384 PWs)   bands (ev):

    -6.0069  -1.5460  -1.4964  -1.2712  -1.2223  -0.4829   1.8381   3.4959
     3.6653  11.3730  11.7194  13.2961  13.9752

          k =-0.5118-0.5118 0.0000 (  1368 PWs)   bands (ev):

    -6.1596  -1.6278  -1.5956  -1.2727  -1.2420  -0.9597   2.3284   3.8134
     5.2191  10.4283  12.0927  12.7586  13.6555

          k =-0.7663-0.2573-0.2573 (  1374 PWs)   bands (ev):

    -6.0816  -1.6004  -1.5272  -1.3424  -1.1557  -0.7580   1.8612   3.8916
     4.6075  10.2624  11.4679  13.5649  14.4856

          k =-0.0029-1.0208 0.5147 (  1384 PWs)   bands (ev):

    -6.0069  -1.5460  -1.4964  -1.2712  -1.2223  -0.4829   1.8381   3.4959
     3.6653  11.3730  11.7194  13.2961  13.9752

          k =-0.2573-0.7663 0.2573 (  1374 PWs)   bands (ev):

    -6.0816  -1.6004  -1.5272  -1.3424  -1.1557  -0.7580   1.8612   3.8916
     4.6075  10.2623  11.4679  13.5648  14.4856

          k = 0.5090 0.5147-0.5090 (  1380 PWs)   bands (ev):

    -6.1550  -1.6617  -1.6544  -1.1792  -1.1737  -0.7812   1.2335   5.2290
     5.2576   9.0274  12.8912  13.0127  13.6123

          k = 0.2545 0.7692-0.7663 (  1374 PWs)   bands (ev):

    -6.0819  -1.6095  -1.5100  -1.3481  -1.1596  -0.7611   1.8937   3.9041
     4.5436  10.1777  11.6374  13.6292  14.4277

          k = 1.0179 0.0057 0.0057 (  1362 PWs)   bands (ev):

    -6.0047  -1.5849  -1.3958  -1.3676  -1.1157  -0.7259   1.8245   3.9239
     4.0251   9.3792  10.4063  15.4097  17.0833

          k = 0.7663 0.7692-0.2545 (  1374 PWs)   bands (ev):

    -6.0819  -1.6095  -1.5100  -1.3481  -1.1596  -0.7611   1.8937   3.9041
     4.5436  10.1777  11.6374  13.6292  14.4277

          k = 0.5118 1.0236-0.5118 (  1368 PWs)   bands (ev):

    -6.1713  -1.6311  -1.6162  -1.2735  -1.2363  -0.9728   2.3424   3.8040
     5.2718  10.5028  12.0813  12.7961  13.7645

          k = 1.2753 0.2602 0.2602 (  1374 PWs)   bands (ev):

    -6.0929  -1.6134  -1.5339  -1.3443  -1.1609  -0.7746   1.8870   3.8982
     4.6384  10.3087  11.5433  13.6513  14.5447

          k = 1.0208 0.5147 0.0029 (  1384 PWs)   bands (ev):

    -6.0069  -1.5460  -1.4964  -1.2712  -1.2223  -0.4829   1.8381   3.4959
     3.6653  11.3730  11.7194  13.2961  13.9752

          k =-0.0057 0.0057-1.0179 (  1362 PWs)   bands (ev):

    -6.0047  -1.5849  -1.3958  -1.3676  -1.1157  -0.7259   1.8245   3.9239
     4.0251   9.3792  10.4063  15.4097  17.0833

          k =-0.2602 0.2602-1.2753 (  1374 PWs)   bands (ev):

    -6.0929  -1.6134  -1.5339  -1.3443  -1.1609  -0.7746   1.8870   3.8982
     4.6384  10.3087  11.5433  13.6513  14.5447

          k = 0.5033-0.5033-0.5033 (  1380 PWs)   bands (ev):

    -6.1770  -1.6775  -1.6774  -1.1792  -1.1792  -0.8109   1.2351   5.3234
     5.3234   9.1321  13.0567  13.0567  13.5042

     the Fermi energy is     6.6875 ev

!    total energy              =    -145.70961228 Ry
     Harris-Foulkes estimate   =    -145.70961235 Ry
     estimated scf accuracy    <       0.00000008 Ry

     convergence has been achieved in   8 iterations

     Forces acting on atoms (cartesian axes, Ry/au):

     atom    1 type  1   force =     0.00336053   -0.00336014   -0.00335893
     atom    2 type  2   force =    -0.00336053    0.00336014    0.00335893

     Total force =     0.008230     Total SCF correction =     0.000030


     Computing stress (Cartesian axis) and pressure

          total   stress  (Ry/bohr**3)                   (kbar)     P=       42.09
   0.00028609   0.00004518   0.00004519           42.09        6.65        6.65
   0.00004518   0.00028609  -0.00004519            6.65       42.09       -6.65
   0.00004519  -0.00004519   0.00028609            6.65       -6.65       42.09


     Entering Dynamics;  it =    23   time =  0.02201 pico-seconds

  new lattice vectors (alat unit) :
  -0.493574931   0.005858685   0.493574817
  -0.005858574   0.493574956   0.493574928
  -0.493575014   0.493574928   0.005858602
  new unit-cell volume =    314.3959 (a.u.)^3
  new positions in cryst coord
Cd      -0.000070336  -0.000070243  -0.000070021
S       -0.249753430   0.750246246  -0.249754533
  new positions in cart coord (alat unit)
Cd       0.000069688  -0.000069643  -0.000069796
S        0.242149256   0.245566955   0.245567521

     Ekin =     0.00195282 Ry    T =   39.9 K  Etot =  -145.62186818
     new unit-cell volume =    314.39593 a.u.^3 (    46.58867 Ang^3 )
     density =      5.14953 g/cm^3

CELL_PARAMETERS (alat= 11.00009582)
  -0.493574931   0.005858685   0.493574817
  -0.005858574   0.493574956   0.493574928
  -0.493575014   0.493574928   0.005858602

ATOMIC_POSITIONS (alat)
Cd            0.0000696882       -0.0000696431       -0.0000697965
S             0.2421492557        0.2455669550        0.2455675209



     Writing output data file ./outdir_4gpa_/pwscf.save/
     NEW-OLD atomic charge density approx. for the potential
     extrapolated charge   17.93633, renormalised to   18.00000

     total cpu time spent up to now is      248.4 secs

     Self-consistent Calculation

     iteration #  1     ecut=    39.13 Ry     beta= 0.70
     Davidson diagonalization with overlap
     ethr =  1.00E-06,  avg # of iterations =  3.2

     total cpu time spent up to now is      249.4 secs

     total energy              =    -145.70759824 Ry
     Harris-Foulkes estimate   =    -145.86738391 Ry
     estimated scf accuracy    <       0.00115446 Ry

     iteration #  2     ecut=    39.13 Ry     beta= 0.70
     Davidson diagonalization with overlap
     ethr =  6.41E-06,  avg # of iterations =  3.0

     total cpu time spent up to now is      250.4 secs

     total energy              =    -145.70902862 Ry
     Harris-Foulkes estimate   =    -145.71079116 Ry
     estimated scf accuracy    <       0.00455103 Ry

     iteration #  3     ecut=    39.13 Ry     beta= 0.70
     Davidson diagonalization with overlap
     ethr =  6.41E-06,  avg # of iterations =  2.1

     total cpu time spent up to now is      251.2 secs

     total energy              =    -145.70934756 Ry
     Harris-Foulkes estimate   =    -145.70945483 Ry
     estimated scf accuracy    <       0.00054712 Ry

     iteration #  4     ecut=    39.13 Ry     beta= 0.70
     Davidson diagonalization with overlap
     ethr =  3.04E-06,  avg # of iterations =  1.0

     total cpu time spent up to now is      251.9 secs

     total energy              =    -145.70931516 Ry
     Harris-Foulkes estimate   =    -145.70935968 Ry
     estimated scf accuracy    <       0.00027720 Ry

     iteration #  5     ecut=    39.13 Ry     beta= 0.70
     Davidson diagonalization with overlap
     ethr =  1.54E-06,  avg # of iterations =  1.0

     total cpu time spent up to now is      252.6 secs

     total energy              =    -145.70926911 Ry
     Harris-Foulkes estimate   =    -145.70932208 Ry
     estimated scf accuracy    <       0.00014168 Ry

     iteration #  6     ecut=    39.13 Ry     beta= 0.70
     Davidson diagonalization with overlap
     ethr =  7.87E-07,  avg # of iterations =  1.8

     total cpu time spent up to now is      253.3 secs

     total energy              =    -145.70927287 Ry
     Harris-Foulkes estimate   =    -145.70928001 Ry
     estimated scf accuracy    <       0.00002325 Ry

     iteration #  7     ecut=    39.13 Ry     beta= 0.70
     Davidson diagonalization with overlap
     ethr =  1.29E-07,  avg # of iterations =  2.1

     total cpu time spent up to now is      254.1 secs

     total energy              =    -145.70927266 Ry
     Harris-Foulkes estimate   =    -145.70927590 Ry
     estimated scf accuracy    <       0.00000471 Ry

     iteration #  8     ecut=    39.13 Ry     beta= 0.70
     Davidson diagonalization with overlap
     ethr =  2.62E-08,  avg # of iterations =  2.4

     total cpu time spent up to now is      254.9 secs

     End of self-consistent calculation

          k = 0.0000 0.0000 0.0000 (  1363 PWs)   bands (ev):

    -6.6412  -1.7829  -1.7829  -1.7653  -1.1891  -1.1891   6.1340   6.2005
     6.2005   7.2664  12.3672  12.6090  12.6090

          k =-0.2548 0.2548-0.2578 (  1375 PWs)   bands (ev):

    -6.3852  -1.6931  -1.6813  -1.5229  -1.1868  -1.1837   3.4816   5.6789
     5.7244   8.9067  12.3827  12.9768  13.1428

          k = 0.5096-0.5096 0.5156 (  1380 PWs)   bands (ev):

    -6.1275  -1.6315  -1.6240  -1.1449  -1.1389  -0.7430   1.2581   5.2685
     5.3001   9.0774  12.9334  13.0607  13.6710

          k = 0.2578 0.2548 0.2548 (  1375 PWs)   bands (ev):

    -6.3852  -1.6931  -1.6813  -1.5229  -1.1868  -1.1837   3.4816   5.6789
     5.7244   8.9067  12.3827  12.9768  13.1428

          k = 0.0030 0.5096-0.0030 (  1355 PWs)   bands (ev):

    -6.3062  -1.6174  -1.5941  -1.5738  -1.2192  -1.1352   3.7198   4.9531
     5.0365   9.7333  10.8225  14.2049  14.3124

          k = 0.7674-0.2548 0.7704 (  1374 PWs)   bands (ev):

    -6.0541  -1.5793  -1.4781  -1.3156  -1.1250  -0.7235   1.9245   3.9400
     4.5791  10.2230  11.6949  13.6824  14.4775

          k = 0.5126-0.0000 0.5126 (  1368 PWs)   bands (ev):

    -6.1321  -1.5975  -1.5643  -1.2398  -1.2083  -0.9240   2.3623   3.8481
     5.2595  10.4832  12.1391  12.8099  13.7025

          k =-0.5156-0.5096-0.5096 (  1380 PWs)   bands (ev):

    -6.1275  -1.6315  -1.6240  -1.1449  -1.1389  -0.7430   1.2581   5.2685
     5.3001   9.0774  12.9334  13.0607  13.6710

          k =-0.7704-0.2548-0.7674 (  1374 PWs)   bands (ev):

    -6.0541  -1.5793  -1.4781  -1.3156  -1.1250  -0.7235   1.9245   3.9400
     4.5791  10.2230  11.6949  13.6824  14.4775

          k =-0.0060-1.0191 0.0060 (  1362 PWs)   bands (ev):

    -5.9765  -1.5554  -1.3639  -1.3341  -1.0805  -0.6879   1.8556   3.9550
     4.0628   9.4197  10.4568  15.4726  17.1516

          k =-0.2548-0.2578 0.2548 (  1375 PWs)   bands (ev):

    -6.3852  -1.6931  -1.6813  -1.5229  -1.1868  -1.1837   3.4816   5.6789
     5.7244   8.9067  12.3827  12.9768  13.1428

          k =-0.5096-0.0030-0.0030 (  1355 PWs)   bands (ev):

    -6.3062  -1.6174  -1.5941  -1.5738  -1.2192  -1.1352   3.7198   4.9531
     5.0365   9.7333  10.8225  14.2049  14.3124

          k = 0.2548-0.7674 0.7704 (  1374 PWs)   bands (ev):

    -6.0541  -1.5793  -1.4781  -1.3156  -1.1250  -0.7235   1.9245   3.9400
     4.5791  10.2230  11.6949  13.6824  14.4775

          k =-0.0000-0.5126 0.5126 (  1368 PWs)   bands (ev):

    -6.1321  -1.5975  -1.5643  -1.2398  -1.2083  -0.9240   2.3623   3.8481
     5.2595  10.4832  12.1391  12.8099  13.7025

          k = 0.0030-0.0030 0.5096 (  1355 PWs)   bands (ev):

    -6.3062  -1.6174  -1.5941  -1.5738  -1.2192  -1.1352   3.7198   4.9531
     5.0365   9.7333  10.8225  14.2049  14.3124

          k =-0.2518 0.2518 0.2518 (  1375 PWs)   bands (ev):

    -6.3978  -1.7041  -1.7041  -1.5104  -1.1831  -1.1831   3.4194   5.7621
     5.7621   8.9621  12.2838  13.1348  13.1348

          k = 0.5126-0.5126 1.0252 (  1368 PWs)   bands (ev):

    -6.1446  -1.6010  -1.5860  -1.2406  -1.2023  -0.9382   2.3764   3.8377
     5.3159  10.5630  12.1275  12.8510  13.8173

          k = 0.2578-0.2578 0.7674 (  1374 PWs)   bands (ev):

    -6.0537  -1.5698  -1.4962  -1.3097  -1.1207  -0.7201   1.8902   3.9259
     4.6475  10.3136  11.5148  13.6135  14.5378

          k =-0.7704-0.7674-0.2548 (  1374 PWs)   bands (ev):

    -6.0541  -1.5793  -1.4781  -1.3156  -1.1250  -0.7235   1.9245   3.9400
     4.5791  10.2230  11.6949  13.6824  14.4775

          k =-1.0252-0.5126-0.5126 (  1368 PWs)   bands (ev):

    -6.1446  -1.6010  -1.5860  -1.2406  -1.2023  -0.9382   2.3764   3.8377
     5.3159  10.5630  12.1275  12.8510  13.8173

          k =-0.2608-1.2769 0.2608 (  1374 PWs)   bands (ev):

    -6.0658  -1.5834  -1.5032  -1.3117  -1.1263  -0.7381   1.9164   3.9339
     4.6800  10.3627  11.5951  13.7066  14.6015

          k =-0.5156-1.0222 0.0030 (  1384 PWs)   bands (ev):

    -5.9788  -1.5157  -1.4645  -1.2376  -1.1885  -0.4421   1.8675   3.5261
     3.6999  11.4182  11.7821  13.3496  14.0228

          k =-0.5126-0.5126 0.0000 (  1368 PWs)   bands (ev):

    -6.1321  -1.5975  -1.5643  -1.2398  -1.2083  -0.9240   2.3623   3.8481
     5.2595  10.4832  12.1391  12.8099  13.7026

          k =-0.7674-0.2578-0.2578 (  1374 PWs)   bands (ev):

    -6.0537  -1.5698  -1.4962  -1.3097  -1.1207  -0.7201   1.8902   3.9259
     4.6475  10.3136  11.5148  13.6135  14.5378

          k =-0.0030-1.0222 0.5156 (  1384 PWs)   bands (ev):

    -5.9788  -1.5157  -1.4645  -1.2376  -1.1885  -0.4421   1.8675   3.5261
     3.6999  11.4182  11.7821  13.3496  14.0228

          k =-0.2578-0.7674 0.2578 (  1374 PWs)   bands (ev):

    -6.0537  -1.5698  -1.4962  -1.3097  -1.1207  -0.7201   1.8902   3.9259
     4.6475  10.3136  11.5148  13.6135  14.5378

          k = 0.5096 0.5156-0.5096 (  1380 PWs)   bands (ev):

    -6.1275  -1.6315  -1.6240  -1.1449  -1.1389  -0.7430   1.2581   5.2685
     5.3001   9.0774  12.9334  13.0607  13.6710

          k = 0.2548 0.7704-0.7674 (  1374 PWs)   bands (ev):

    -6.0541  -1.5793  -1.4781  -1.3156  -1.1250  -0.7235   1.9245   3.9400
     4.5791  10.2230  11.6949  13.6824  14.4775

          k = 1.0191 0.0060 0.0060 (  1362 PWs)   bands (ev):

    -5.9765  -1.5554  -1.3639  -1.3341  -1.0805  -0.6879   1.8556   3.9550
     4.0628   9.4197  10.4568  15.4726  17.1516

          k = 0.7674 0.7704-0.2548 (  1374 PWs)   bands (ev):

    -6.0541  -1.5793  -1.4781  -1.3156  -1.1250  -0.7235   1.9245   3.9400
     4.5791  10.2230  11.6949  13.6824  14.4775

          k = 0.5126 1.0252-0.5126 (  1368 PWs)   bands (ev):

    -6.1446  -1.6010  -1.5860  -1.2406  -1.2023  -0.9382   2.3764   3.8377
     5.3159  10.5630  12.1275  12.8510  13.8173

          k = 1.2769 0.2608 0.2608 (  1374 PWs)   bands (ev):

    -6.0658  -1.5834  -1.5032  -1.3117  -1.1263  -0.7381   1.9164   3.9339
     4.6800  10.3627  11.5951  13.7066  14.6015

          k = 1.0222 0.5156 0.0030 (  1384 PWs)   bands (ev):

    -5.9788  -1.5157  -1.4645  -1.2376  -1.1885  -0.4421   1.8675   3.5261
     3.7000  11.4182  11.7821  13.3496  14.0228

          k =-0.0060 0.0060-1.0191 (  1362 PWs)   bands (ev):

    -5.9765  -1.5554  -1.3639  -1.3341  -1.0805  -0.6879   1.8556   3.9550
     4.0628   9.4197  10.4568  15.4726  17.1516

          k =-0.2608 0.2608-1.2769 (  1374 PWs)   bands (ev):

    -6.0658  -1.5834  -1.5032  -1.3117  -1.1263  -0.7381   1.9164   3.9339
     4.6800  10.3627  11.5951  13.7066  14.6015

          k = 0.5035-0.5035-0.5035 (  1380 PWs)   bands (ev):

    -6.1508  -1.6480  -1.6480  -1.1449  -1.1449  -0.7749   1.2587   5.3692
     5.3693   9.1896  13.1088  13.1088  13.5569

     the Fermi energy is     6.7406 ev

!    total energy              =    -145.70927408 Ry
     Harris-Foulkes estimate   =    -145.70927477 Ry
     estimated scf accuracy    <       0.00000076 Ry

     convergence has been achieved in   8 iterations

     Forces acting on atoms (cartesian axes, Ry/au):

     atom    1 type  1   force =     0.00357325   -0.00357279   -0.00357244
     atom    2 type  2   force =    -0.00357325    0.00357279    0.00357244

     Total force =     0.008752     Total SCF correction =     0.000084


     Computing stress (Cartesian axis) and pressure

          total   stress  (Ry/bohr**3)                   (kbar)     P=       49.55
   0.00033681   0.00004800   0.00004800           49.55        7.06        7.06
   0.00004800   0.00033681  -0.00004800            7.06       49.55       -7.06
   0.00004800  -0.00004800   0.00033681            7.06       -7.06       49.55


     Entering Dynamics;  it =    24   time =  0.02301 pico-seconds

  new lattice vectors (alat unit) :
  -0.493168937   0.006165710   0.493168813
  -0.006165596   0.493168963   0.493168927
  -0.493169025   0.493168937   0.006165623
  new unit-cell volume =    313.3179 (a.u.)^3
  new positions in cryst coord
Cd      -0.000082727  -0.000082630  -0.000082398
S       -0.249709992   0.750289668  -0.249711143
  new positions in cart coord (alat unit)
Cd       0.000081944  -0.000081897  -0.000082057
S        0.241673029   0.245330159   0.245330745

     Ekin =     0.00188783 Ry    T =   41.0 K  Etot =  -145.62189743
     new unit-cell volume =    313.31793 a.u.^3 (    46.42893 Ang^3 )
     density =      5.16725 g/cm^3

CELL_PARAMETERS (alat= 11.00009582)
  -0.493168937   0.006165710   0.493168813
  -0.006165596   0.493168963   0.493168927
  -0.493169025   0.493168937   0.006165623

ATOMIC_POSITIONS (alat)
Cd            0.0000819441       -0.0000818969       -0.0000820568
S             0.2416730291        0.2453301594        0.2453307455



     Writing output data file ./outdir_4gpa_/pwscf.save/
     NEW-OLD atomic charge density approx. for the potential
     extrapolated charge   17.93808, renormalised to   18.00000

     total cpu time spent up to now is      259.3 secs

     Self-consistent Calculation

     iteration #  1     ecut=    39.13 Ry     beta= 0.70
     Davidson diagonalization with overlap
     ethr =  1.00E-06,  avg # of iterations =  3.1

     total cpu time spent up to now is      260.4 secs

     total energy              =    -145.70740180 Ry
     Harris-Foulkes estimate   =    -145.86228183 Ry
     estimated scf accuracy    <       0.00102349 Ry

     iteration #  2     ecut=    39.13 Ry     beta= 0.70
     Davidson diagonalization with overlap
     ethr =  5.69E-06,  avg # of iterations =  3.0

     total cpu time spent up to now is      261.4 secs

     total energy              =    -145.70871895 Ry
     Harris-Foulkes estimate   =    -145.71031859 Ry
     estimated scf accuracy    <       0.00417257 Ry

     iteration #  3     ecut=    39.13 Ry     beta= 0.70
     Davidson diagonalization with overlap
     ethr =  5.69E-06,  avg # of iterations =  2.2

     total cpu time spent up to now is      262.2 secs

     total energy              =    -145.70899791 Ry
     Harris-Foulkes estimate   =    -145.70910059 Ry
     estimated scf accuracy    <       0.00052376 Ry

     iteration #  4     ecut=    39.13 Ry     beta= 0.70
     Davidson diagonalization with overlap
     ethr =  2.91E-06,  avg # of iterations =  1.0

     total cpu time spent up to now is      262.9 secs

     total energy              =    -145.70896689 Ry
     Harris-Foulkes estimate   =    -145.70900931 Ry
     estimated scf accuracy    <       0.00026568 Ry

     iteration #  5     ecut=    39.13 Ry     beta= 0.70
     Davidson diagonalization with overlap
     ethr =  1.48E-06,  avg # of iterations =  1.0

     total cpu time spent up to now is      263.6 secs

     total energy              =    -145.70892431 Ry
     Harris-Foulkes estimate   =    -145.70897338 Ry
     estimated scf accuracy    <       0.00013634 Ry

     iteration #  6     ecut=    39.13 Ry     beta= 0.70
     Davidson diagonalization with overlap
     ethr =  7.57E-07,  avg # of iterations =  1.3

     total cpu time spent up to now is      264.3 secs

     total energy              =    -145.70892290 Ry
     Harris-Foulkes estimate   =    -145.70893377 Ry
     estimated scf accuracy    <       0.00002578 Ry

     iteration #  7     ecut=    39.13 Ry     beta= 0.70
     Davidson diagonalization with overlap
     ethr =  1.43E-07,  avg # of iterations =  2.0
