
     Program PWSCF v.6.5 starts on  5Aug2020 at 19:36:30 

     This program is part of the open-source Quantum ESPRESSO suite
     for quantum simulation of materials; please cite
         "P. Giannozzi et al., J. Phys.:Condens. Matter 21 395502 (2009);
         "P. Giannozzi et al., J. Phys.:Condens. Matter 29 465901 (2017);
          URL http://www.quantum-espresso.org", 
     in publications or presentations arising from this work. More details at
     http://www.quantum-espresso.org/quote

     Parallel version (MPI), running on    16 processors

     MPI processes distributed on     1 nodes
     R & G space division:  proc/nbgrp/npool/nimage =      16
     Waiting for input...
     Reading input from standard input

     Current dimensions of program PWSCF are:
     Max number of different atomic species (ntypx) = 10
     Max number of k-points (npk) =  40000
     Max angular momentum in pseudopotentials (lmaxx) =  3
     Message from routine read_upf::
     Pseudo file Cd.pbesol-dn-rrkjus_psl.0.3.1.UPF has been fixed on the fly.
To avoid this message in the future, permanently fix 
 your pseudo files following these instructions: 
https://gitlab.com/QEF/q-e/blob/master/upftools/how_to_fix_upf.md
               file Cd.pbesol-dn-rrkjus_psl.0.3.1.UPF: wavefunction(s)  4D renormalized

     Subspace diagonalization in iterative solution of the eigenvalue problem:
     a serial algorithm will be used

 
     Parallelization info
     --------------------
     sticks:   dense  smooth     PW     G-vecs:    dense   smooth      PW
     Min         169     169     46                 6599     6599     962
     Max         170     170     47                 6602     6602     965
     Sum        2709    2709    749               105591   105591   15419
 


     bravais-lattice index     =            1
     lattice parameter (alat)  =      11.0001  a.u.
     unit-cell volume          =    1331.0348 (a.u.)^3
     number of atoms/cell      =            8
     number of atomic types    =            2
     number of electrons       =        72.00
     number of Kohn-Sham states=           43
     kinetic-energy cutoff     =      70.0000  Ry
     charge density cutoff     =     280.0000  Ry
     convergence threshold     =      1.0E-06
     mixing beta               =       0.7000
     number of iterations used =            8  plain     mixing
     Exchange-correlation= SLA  PW   PSX  PSC
                           (   1   4  10   8   0   0   0)
     nstep                     =         2000


     celldm(1)=  11.000096  celldm(2)=   0.000000  celldm(3)=   0.000000
     celldm(4)=   0.000000  celldm(5)=   0.000000  celldm(6)=   0.000000

     crystal axes: (cart. coord. in units of alat)
               a(1) = (   1.000000   0.000000   0.000000 )  
               a(2) = (   0.000000   1.000000   0.000000 )  
               a(3) = (   0.000000   0.000000   1.000000 )  

     reciprocal axes: (cart. coord. in units 2 pi/alat)
               b(1) = (  1.000000  0.000000  0.000000 )  
               b(2) = (  0.000000  1.000000  0.000000 )  
               b(3) = (  0.000000  0.000000  1.000000 )  


     PseudoPot. # 1 for Cd read from file:
     ./Cd.pbesol-dn-rrkjus_psl.0.3.1.UPF
     MD5 check sum: 75c3aef906f21f7061977001f0aeeab1
     Pseudo is Ultrasoft + core correction, Zval = 12.0
     Generated using "atomic" code by A. Dal Corso v.6.0 svn rev. 13079
     Using radial grid of 1239 points,  6 beta functions with: 
                l(1) =   0
                l(2) =   0
                l(3) =   1
                l(4) =   1
                l(5) =   2
                l(6) =   2
     Q(r) pseudized with 0 coefficients 


     PseudoPot. # 2 for S  read from file:
     ./s_pbesol_v1.4.uspp.F.UPF
     MD5 check sum: 0ccfa86ec6eb59065d10aaae963ef2a7
     Pseudo is Ultrasoft + core correction, Zval =  6.0
     Generated by new atomic code, or converted to UPF format
     Using radial grid of  907 points,  6 beta functions with: 
                l(1) =   0
                l(2) =   0
                l(3) =   1
                l(4) =   1
                l(5) =   2
                l(6) =   2
     Q(r) pseudized with  8 coefficients,  rinner =    1.300   1.300   1.300
                                                       1.300   1.300

     atomic species   valence    mass     pseudopotential
        Cd            12.00   112.41100     Cd( 1.00)
        S              6.00    32.06600     S ( 1.00)

      cell mass =  43.91574 AMU 

     No symmetry found



   Cartesian axes

     site n.     atom                  positions (alat units)
         1           Cd  tau(   1) = (   0.0000000   0.0000000   0.0000000  )
         2           Cd  tau(   2) = (   0.0000000   0.5102932   0.5102932  )
         3           Cd  tau(   3) = (   0.5102932   0.0000000   0.5102932  )
         4           Cd  tau(   4) = (   0.5102932   0.5102932   0.0000000  )
         5           S   tau(   5) = (   0.2551467   0.2551467   0.7654400  )
         6           S   tau(   6) = (   0.2551467   0.7654400   0.2551467  )
         7           S   tau(   7) = (   0.7654400   0.2551467   0.2551467  )
         8           S   tau(   8) = (   0.7654400   0.7654400   0.7654400  )

     number of k points=   256  Gaussian smearing, width (Ry)=  0.0100

     Number of k-points >= 100: set verbosity='high' to print them.

     Dense  grid:   105591 G-vectors     FFT dimensions: (  60,  60,  60)

     Estimated max dynamical RAM per process >     174.79 MB

     Estimated total dynamical RAM >       2.73 GB

     Initial potential from superposition of free atoms

     starting charge   71.98205, renormalised to   72.00000
     Starting wfcs are   52 randomized atomic wfcs

     total cpu time spent up to now is       37.5 secs

     Self-consistent Calculation

     iteration #  1     ecut=    70.00 Ry     beta= 0.70
     Davidson diagonalization with overlap
     ethr =  1.00E-02,  avg # of iterations =  3.2

     Threshold (ethr) on eigenvalues was too large:
     Diagonalizing with lowered threshold

     Davidson diagonalization with overlap
     ethr =  4.22E-04,  avg # of iterations =  2.7

     total cpu time spent up to now is      226.1 secs

     total energy              =    -582.78219537 Ry
     Harris-Foulkes estimate   =    -582.96298884 Ry
     estimated scf accuracy    <       0.29251998 Ry

     iteration #  2     ecut=    70.00 Ry     beta= 0.70
     Davidson diagonalization with overlap
     ethr =  4.06E-04,  avg # of iterations =  3.8

     total cpu time spent up to now is      354.2 secs

     total energy              =    -582.85678875 Ry
     Harris-Foulkes estimate   =    -582.90785319 Ry
     estimated scf accuracy    <       0.08719225 Ry

     iteration #  3     ecut=    70.00 Ry     beta= 0.70
     Davidson diagonalization with overlap
     ethr =  1.21E-04,  avg # of iterations =  3.1

     total cpu time spent up to now is      464.1 secs

     total energy              =    -582.87649499 Ry
     Harris-Foulkes estimate   =    -582.87855845 Ry
     estimated scf accuracy    <       0.00379521 Ry

     iteration #  4     ecut=    70.00 Ry     beta= 0.70
     Davidson diagonalization with overlap
     ethr =  5.27E-06,  avg # of iterations =  6.5

     total cpu time spent up to now is      641.6 secs

     total energy              =    -582.87800936 Ry
     Harris-Foulkes estimate   =    -582.87880688 Ry
     estimated scf accuracy    <       0.00178669 Ry

     iteration #  5     ecut=    70.00 Ry     beta= 0.70
     Davidson diagonalization with overlap
     ethr =  2.48E-06,  avg # of iterations =  2.1

     total cpu time spent up to now is      735.0 secs

     total energy              =    -582.87828415 Ry
     Harris-Foulkes estimate   =    -582.87830386 Ry
     estimated scf accuracy    <       0.00004587 Ry

     iteration #  6     ecut=    70.00 Ry     beta= 0.70
     Davidson diagonalization with overlap
     ethr =  6.37E-08,  avg # of iterations =  3.6

     total cpu time spent up to now is      870.1 secs

     total energy              =    -582.87831070 Ry
     Harris-Foulkes estimate   =    -582.87831233 Ry
     estimated scf accuracy    <       0.00000426 Ry

     iteration #  7     ecut=    70.00 Ry     beta= 0.70
     Davidson diagonalization with overlap
     ethr =  5.92E-09,  avg # of iterations =  2.7

     total cpu time spent up to now is      981.1 secs

     End of self-consistent calculation

     Number of k-points >= 100: set verbosity='high' to print the bands.

     the Fermi energy is     6.0378 ev

!    total energy              =    -582.87831135 Ry
     Harris-Foulkes estimate   =    -582.87831192 Ry
     estimated scf accuracy    <       0.00000078 Ry

     convergence has been achieved in   7 iterations

     Forces acting on atoms (cartesian axes, Ry/au):

     atom    1 type  1   force =     0.02301395    0.02300764    0.02301067
     atom    2 type  1   force =     0.01466967   -0.00434101   -0.00434139
     atom    3 type  1   force =    -0.00434470    0.01466925   -0.00434473
     atom    4 type  1   force =    -0.00434482   -0.00434334    0.01467011
     atom    5 type  2   force =     0.00546740    0.00546861   -0.01548449
     atom    6 type  2   force =     0.00546763   -0.01548458    0.00546771
     atom    7 type  2   force =    -0.01548373    0.00546802    0.00546740
     atom    8 type  2   force =    -0.02444540   -0.02444459   -0.02444527

     Total force =     0.070983     Total SCF correction =     0.001997


     Computing stress (Cartesian axis) and pressure

          total   stress  (Ry/bohr**3)                   (kbar)     P=        4.91
   0.00003338   0.00005509   0.00005510            4.91        8.10        8.10
   0.00005509   0.00003338   0.00005510            8.10        4.91        8.11
   0.00005510   0.00005510   0.00003338            8.10        8.11        4.91


     Entering Dynamics;  it =     1   time =  0.00000 pico-seconds

  new lattice vectors (alat unit) :
   0.999994234   0.000000984   0.000001071
   0.000000984   0.999994084   0.000001164
   0.000001071   0.000001164   0.999994273
  new unit-cell volume =   1331.0116 (a.u.)^3
  new positions in cryst coord
Cd      -0.000279278   0.000051320  -0.000124608
Cd       0.000061906   0.510292319   0.510522888
Cd       0.510511975  -0.000150346   0.510132874
Cd       0.510293726   0.510395036   0.000057176
S        0.255171681   0.255123133   0.765325383
S        0.255226443   0.765283020   0.254888651
S        0.765321489   0.255286100   0.255516398
S        0.765447302   0.765474663   0.765436483
  new positions in cart coord (alat unit)
Cd      -0.000279276   0.000051320  -0.000124608
Cd       0.000062954   0.510289895   0.510520558
Cd       0.510509578  -0.000149249   0.510130499
Cd       0.510291286   0.510392519   0.000058316
S        0.255171281   0.255122766   0.765321570
S        0.255225997   0.765279041   0.254888355
S        0.765317601   0.255285640   0.255516051
S        0.765444461   0.765471779   0.765433810

     Ekin =     0.01995094 Ry    T =    0.0 K  Etot =  -582.40595081
     new unit-cell volume =   1331.01161 a.u.^3 (   197.23557 Ang^3 )
     density =      4.86544 g/cm^3

CELL_PARAMETERS (alat= 11.00009582)
   0.999994234   0.000000984   0.000001071
   0.000000984   0.999994084   0.000001164
   0.000001071   0.000001164   0.999994273

ATOMIC_POSITIONS (angstrom)
Cd           -0.0016256670        0.0002987320       -0.0007253414
Cd            0.0003664564        2.9703974770        2.9717401677
Cd            2.9716762534       -0.0008687781        2.9694696327
Cd            2.9704055757        2.9709948509        0.0003394584
S             1.4853520259        1.4850696196        4.4549368605
S             1.4856705313        4.4546892972        1.4837051160
S             4.4549137579        1.4860177109        1.4873589347
S             4.4556522094        4.4558112267        4.4555902100



     Writing output data file ./outdir_1bar_/pwscf.save/
     NEW-OLD atomic charge density approx. for the potential
     extrapolated charge   71.99875, renormalised to   72.00000

     total cpu time spent up to now is     1044.9 secs

     Self-consistent Calculation

     iteration #  1     ecut=    70.00 Ry     beta= 0.70
     Davidson diagonalization with overlap
     ethr =  1.00E-06,  avg # of iterations =  3.0

     Threshold (ethr) on eigenvalues was too large:
     Diagonalizing with lowered threshold

     Davidson diagonalization with overlap
     ethr =  5.50E-09,  avg # of iterations =  3.0

     total cpu time spent up to now is     1307.5 secs

     total energy              =    -582.87826758 Ry
     Harris-Foulkes estimate   =    -582.88151032 Ry
     estimated scf accuracy    <       0.00000387 Ry

     iteration #  2     ecut=    70.00 Ry     beta= 0.70
     Davidson diagonalization with overlap
     ethr =  5.38E-09,  avg # of iterations =  2.9

     total cpu time spent up to now is     1418.0 secs

     total energy              =    -582.87826841 Ry
     Harris-Foulkes estimate   =    -582.87826983 Ry
     estimated scf accuracy    <       0.00000258 Ry

     iteration #  3     ecut=    70.00 Ry     beta= 0.70
     Davidson diagonalization with overlap
     ethr =  3.58E-09,  avg # of iterations =  2.0

     total cpu time spent up to now is     1506.6 secs

     End of self-consistent calculation

     Number of k-points >= 100: set verbosity='high' to print the bands.

     the Fermi energy is     6.0379 ev

!    total energy              =    -582.87826898 Ry
     Harris-Foulkes estimate   =    -582.87826909 Ry
     estimated scf accuracy    <       0.00000014 Ry

     convergence has been achieved in   3 iterations

     Forces acting on atoms (cartesian axes, Ry/au):

     atom    1 type  1   force =     0.02386761    0.02396735    0.02414519
     atom    2 type  1   force =     0.01521069   -0.00456623   -0.00513606
     atom    3 type  1   force =    -0.00544199    0.01503266   -0.00473436
     atom    4 type  1   force =    -0.00458770   -0.00527313    0.01482940
     atom    5 type  2   force =     0.00566102    0.00532039   -0.01526361
     atom    6 type  2   force =     0.00513754   -0.01510611    0.00582986
     atom    7 type  2   force =    -0.01521399    0.00535320    0.00486665
     atom    8 type  2   force =    -0.02463319   -0.02472814   -0.02453708

     Total force =     0.072378     Total SCF correction =     0.000774


     Computing stress (Cartesian axis) and pressure

          total   stress  (Ry/bohr**3)                   (kbar)     P=        4.10
   0.00002780   0.00005528   0.00005524            4.09        8.13        8.13
   0.00005528   0.00002792   0.00005530            8.13        4.11        8.13
   0.00005524   0.00005530   0.00002793            8.13        8.13        4.11


     Entering Dynamics;  it =     2   time =  0.00050 pico-seconds

  new lattice vectors (alat unit) :
   0.999979652   0.000003448   0.000003748
   0.000003448   0.999979135   0.000004080
   0.000003748   0.000004080   0.999979795
  new unit-cell volume =   1330.9530 (a.u.)^3
  new positions in cryst coord
Cd      -0.000556299   0.000104915  -0.000246930
Cd       0.000125253   0.510290956   0.510752045
Cd       0.510730192  -0.000299271   0.509972047
Cd       0.510293768   0.510496325   0.000115758
S        0.255198535   0.255101324   0.765205734
S        0.255307886   0.765121060   0.254632524
S        0.765197961   0.255427270   0.255887710
S        0.765446460   0.765501152   0.765424855
  new positions in cart coord (alat unit)
Cd      -0.000556288   0.000104910  -0.000246926
Cd       0.000128924   0.510282393   0.510743807
Cd       0.510721710  -0.000295423   0.509963656
Cd       0.510285145   0.510487433   0.000119751
S        0.255197090   0.255100003   0.765192270
S        0.255306283   0.765107015   0.254631458
S        0.765184231   0.255425623   0.255886450
S        0.765436394   0.765490942   0.765415382

     Ekin =     0.01990969 Ry    T =  232.9 K  Etot =  -582.40595756
     new unit-cell volume =   1330.95304 a.u.^3 (   197.22689 Ang^3 )
     density =      4.86566 g/cm^3

CELL_PARAMETERS (alat= 11.00009582)
   0.999979652   0.000003448   0.000003748
   0.000003448   0.999979135   0.000004080
   0.000003748   0.000004080   0.999979795

ATOMIC_POSITIONS (angstrom)
Cd           -0.0032381524        0.0006106805       -0.0014373574
Cd            0.0007504695        2.9703538102        2.9730397017
Cd            2.9729110762       -0.0017196547        2.9684984396
Cd            2.9703698309        2.9715473498        0.0006970728
S             1.4855022596        1.4849371180        4.4541842034
S             1.4861378758        4.4536879354        1.4822097160
S             4.4541374066        1.4868325486        1.4895150258
S             4.4556052471        4.4559227762        4.4554829380



     Writing output data file ./outdir_1bar_/pwscf.save/
     NEW-OLD atomic charge density approx. for the potential
     extrapolated charge   71.99683, renormalised to   72.00000

     total cpu time spent up to now is     1574.3 secs

     Self-consistent Calculation

     iteration #  1     ecut=    70.00 Ry     beta= 0.70
     Davidson diagonalization with overlap
     ethr =  1.00E-06,  avg # of iterations =  3.0

     Threshold (ethr) on eigenvalues was too large:
     Diagonalizing with lowered threshold

     Davidson diagonalization with overlap
     ethr =  4.68E-09,  avg # of iterations =  3.0

     total cpu time spent up to now is     1826.2 secs

     total energy              =    -582.87822780 Ry
     Harris-Foulkes estimate   =    -582.88642138 Ry
     estimated scf accuracy    <       0.00000318 Ry

     iteration #  2     ecut=    70.00 Ry     beta= 0.70
     Davidson diagonalization with overlap
     ethr =  4.42E-09,  avg # of iterations =  3.0

     total cpu time spent up to now is     1956.4 secs

     total energy              =    -582.87822901 Ry
     Harris-Foulkes estimate   =    -582.87823101 Ry
     estimated scf accuracy    <       0.00000404 Ry

     iteration #  3     ecut=    70.00 Ry     beta= 0.70
     Davidson diagonalization with overlap
     ethr =  4.42E-09,  avg # of iterations =  2.1

     total cpu time spent up to now is     2051.1 secs

     End of self-consistent calculation

     Number of k-points >= 100: set verbosity='high' to print the bands.

     the Fermi energy is     6.0390 ev

!    total energy              =    -582.87822963 Ry
     Harris-Foulkes estimate   =    -582.87822971 Ry
     estimated scf accuracy    <       0.00000012 Ry

     convergence has been achieved in   3 iterations

     Forces acting on atoms (cartesian axes, Ry/au):

     atom    1 type  1   force =     0.02395804    0.02397187    0.02409948
     atom    2 type  1   force =     0.01518637   -0.00442290   -0.00486314
     atom    3 type  1   force =    -0.00536903    0.01483328   -0.00454910
     atom    4 type  1   force =    -0.00464553   -0.00506280    0.01458950
     atom    5 type  2   force =     0.00584857    0.00513857   -0.01501441
     atom    6 type  2   force =     0.00474511   -0.01467157    0.00617898
     atom    7 type  2   force =    -0.01489224    0.00522269    0.00419714
     atom    8 type  2   force =    -0.02483130   -0.02500914   -0.02463845

     Total force =     0.072185     Total SCF correction =     0.000926


     Computing stress (Cartesian axis) and pressure

          total   stress  (Ry/bohr**3)                   (kbar)     P=        3.59
   0.00002427   0.00005554   0.00005543            3.57        8.17        8.15
   0.00005554   0.00002453   0.00005553            8.17        3.61        8.17
   0.00005543   0.00005553   0.00002450            8.15        8.17        3.60


     Entering Dynamics;  it =     3   time =  0.00100 pico-seconds

  new lattice vectors (alat unit) :
   0.999956150   0.000007397   0.000008034
   0.000007397   0.999955054   0.000008756
   0.000008034   0.000008756   0.999956465
  new unit-cell volume =   1330.8587 (a.u.)^3
  new positions in cryst coord
Cd      -0.000831059   0.000160786  -0.000366970
Cd       0.000190041   0.510289171   0.510980749
Cd       0.510947910  -0.000446795   0.509810782
Cd       0.510293369   0.510597138   0.000175724
S        0.255227333   0.255081221   0.765081091
S        0.255390911   0.764954220   0.254378441
S        0.765069476   0.255570178   0.256260430
S        0.765437368   0.765519332   0.765405040
  new positions in cart coord (alat unit)
Cd      -0.000831024   0.000160770  -0.000366959
Cd       0.000197912   0.510270711   0.510962973
Cd       0.510929598  -0.000438532   0.509792688
Cd       0.510274770   0.510577964   0.000184287
S        0.255224175   0.255078343   0.765052067
S        0.255387414   0.764923955   0.254376116
S        0.765039876   0.255566594   0.256257659
S        0.765415615   0.765497289   0.765384570

     Ekin =     0.01988687 Ry    T =  232.7 K  Etot =  -582.40596094
     new unit-cell volume =   1330.85865 a.u.^3 (   197.21290 Ang^3 )
     density =      4.86600 g/cm^3

CELL_PARAMETERS (alat= 11.00009582)
   0.999956150   0.000007397   0.000008034
   0.000007397   0.999955054   0.000008756
   0.000008034   0.000008756   0.999956465

ATOMIC_POSITIONS (angstrom)
Cd           -0.0048373925        0.0009358414       -0.0021360690
Cd            0.0011520485        2.9702858088        2.9743154640
Cd            2.9741211873       -0.0025526931        2.9675032396
Cd            2.9703094389        2.9720743312        0.0010727364
S             1.4856599227        1.4848110372        4.4533680828
S             1.4866101391        4.4526223402        1.4807233733
S             4.4532971210        1.4876531457        1.4916758302
S             4.4554842956        4.4559597204        4.4553035823



     Writing output data file ./outdir_1bar_/pwscf.save/
     NEW-OLD atomic charge density approx. for the potential
     extrapolated charge   71.99490, renormalised to   72.00000

     total cpu time spent up to now is     2122.5 secs

     Self-consistent Calculation

     iteration #  1     ecut=    70.00 Ry     beta= 0.70
     Davidson diagonalization with overlap
     ethr =  1.00E-06,  avg # of iterations =  3.0

     Threshold (ethr) on eigenvalues was too large:
     Diagonalizing with lowered threshold

     Davidson diagonalization with overlap
     ethr =  7.48E-09,  avg # of iterations =  3.0

     total cpu time spent up to now is     2364.6 secs

     total energy              =    -582.87818956 Ry
     Harris-Foulkes estimate   =    -582.89139327 Ry
     estimated scf accuracy    <       0.00000503 Ry

     iteration #  2     ecut=    70.00 Ry     beta= 0.70
     Davidson diagonalization with overlap
     ethr =  6.99E-09,  avg # of iterations =  3.0

     total cpu time spent up to now is     2498.4 secs

     total energy              =    -582.87819252 Ry
     Harris-Foulkes estimate   =    -582.87819676 Ry
     estimated scf accuracy    <       0.00000915 Ry

     iteration #  3     ecut=    70.00 Ry     beta= 0.70
     Davidson diagonalization with overlap
     ethr =  6.99E-09,  avg # of iterations =  2.0

     total cpu time spent up to now is     2592.5 secs

     End of self-consistent calculation

     Number of k-points >= 100: set verbosity='high' to print the bands.

     the Fermi energy is     6.0402 ev

!    total energy              =    -582.87819336 Ry
     Harris-Foulkes estimate   =    -582.87819377 Ry
     estimated scf accuracy    <       0.00000048 Ry

     convergence has been achieved in   3 iterations

     Forces acting on atoms (cartesian axes, Ry/au):

     atom    1 type  1   force =     0.02433041    0.02435947    0.02454335
     atom    2 type  1   force =     0.01538501   -0.00439642   -0.00506162
     atom    3 type  1   force =    -0.00580264    0.01484825   -0.00460054
     atom    4 type  1   force =    -0.00472364   -0.00535253    0.01449203
     atom    5 type  2   force =     0.00596905    0.00490919   -0.01470575
     atom    6 type  2   force =     0.00432191   -0.01418675    0.00646615
     atom    7 type  2   force =    -0.01453051    0.00504219    0.00351861
     atom    8 type  2   force =    -0.02494958   -0.02522340   -0.02465224

     Total force =     0.072517     Total SCF correction =     0.001361


     Computing stress (Cartesian axis) and pressure

          total   stress  (Ry/bohr**3)                   (kbar)     P=        2.16
   0.00001441   0.00005574   0.00005560            2.12        8.20        8.18
   0.00005574   0.00001481   0.00005575            8.20        2.18        8.20
   0.00005560   0.00005575   0.00001475            8.18        8.20        2.17


     Entering Dynamics;  it =     4   time =  0.00150 pico-seconds

  new lattice vectors (alat unit) :
   0.999923436   0.000012835   0.000013930
   0.000012835   0.999921557   0.000015198
   0.000013930   0.000015198   0.999923998
  new unit-cell volume =   1330.7273 (a.u.)^3
  new positions in cryst coord
Cd      -0.001103528   0.000218974  -0.000484688
Cd       0.000256289   0.510286966   0.511208985
Cd       0.511165093  -0.000592921   0.509649072
Cd       0.510292520   0.510697448   0.000237067
S        0.255258118   0.255062750   0.764951555
S        0.255475382   0.764782658   0.254126494
S        0.764936150   0.255714768   0.256634341
S        0.765419985   0.765529133   0.765377032
  new positions in cart coord (alat unit)
Cd      -0.001103447   0.000218935  -0.000484664
Cd       0.000269939   0.510254710   0.511177891
Cd       0.511133048  -0.000578568   0.509617449
Cd       0.510260008   0.510663941   0.000251919
S        0.255252504   0.255057644   0.764900849
S        0.255469178   0.764729807   0.254122361
S        0.764884440   0.255708427   0.256629378
S        0.765381868   0.765490539   0.765341158

     Ekin =     0.01988401 Ry    T =  232.7 K  Etot =  -582.40595961
     new unit-cell volume =   1330.72732 a.u.^3 (   197.19344 Ang^3 )
     density =      4.86648 g/cm^3

CELL_PARAMETERS (alat= 11.00009582)
   0.999923436   0.000012835   0.000013930
   0.000012835   0.999921557   0.000015198
   0.000013930   0.000015198   0.999923998

ATOMIC_POSITIONS (angstrom)
Cd           -0.0064231667        0.0012744218       -0.0028212265
Cd            0.0015713177        2.9701926668        2.9755665037
Cd            2.9753054726       -0.0033678438        2.9664831691
Cd            2.9702235064        2.9725747983        0.0014664176
S             1.4858248255        1.4846905484        4.4524878416
S             1.4870860823        4.4514922075        1.4792462648
S             4.4523923254        1.4884787538        1.4938396068
S             4.4552878554        4.4559204265        4.4550508806



     Writing output data file ./outdir_1bar_/pwscf.save/
     NEW-OLD atomic charge density approx. for the potential
     extrapolated charge   71.99290, renormalised to   72.00000

     total cpu time spent up to now is     2662.1 secs

     Self-consistent Calculation

     iteration #  1     ecut=    70.00 Ry     beta= 0.70
     Davidson diagonalization with overlap
     ethr =  1.00E-06,  avg # of iterations =  3.0

     Threshold (ethr) on eigenvalues was too large:
     Diagonalizing with lowered threshold

     Davidson diagonalization with overlap
     ethr =  1.65E-08,  avg # of iterations =  2.1

     total cpu time spent up to now is     2888.1 secs

     total energy              =    -582.87815069 Ry
     Harris-Foulkes estimate   =    -582.89652962 Ry
     estimated scf accuracy    <       0.00001148 Ry

     iteration #  2     ecut=    70.00 Ry     beta= 0.70
     Davidson diagonalization with overlap
     ethr =  1.59E-08,  avg # of iterations =  3.0

     total cpu time spent up to now is     3029.1 secs

     total energy              =    -582.87815802 Ry
     Harris-Foulkes estimate   =    -582.87816881 Ry
     estimated scf accuracy    <       0.00002359 Ry

     iteration #  3     ecut=    70.00 Ry     beta= 0.70
     Davidson diagonalization with overlap
     ethr =  1.59E-08,  avg # of iterations =  2.0

     total cpu time spent up to now is     3126.9 secs

     total energy              =    -582.87816065 Ry
     Harris-Foulkes estimate   =    -582.87816117 Ry
     estimated scf accuracy    <       0.00000123 Ry

     iteration #  4     ecut=    70.00 Ry     beta= 0.70
     Davidson diagonalization with overlap
     ethr =  1.71E-09,  avg # of iterations =  3.0

     total cpu time spent up to now is     3245.9 secs

     End of self-consistent calculation

     Number of k-points >= 100: set verbosity='high' to print the bands.

     the Fermi energy is     6.0415 ev

!    total energy              =    -582.87816087 Ry
     Harris-Foulkes estimate   =    -582.87816096 Ry
     estimated scf accuracy    <       0.00000011 Ry

     convergence has been achieved in   4 iterations

     Forces acting on atoms (cartesian axes, Ry/au):

     atom    1 type  1   force =     0.02466583    0.02475947    0.02505306
     atom    2 type  1   force =     0.01552334   -0.00414699   -0.00532154
     atom    3 type  1   force =    -0.00641121    0.01475575   -0.00447731
     atom    4 type  1   force =    -0.00457628   -0.00579924    0.01417729
     atom    5 type  2   force =     0.00604869    0.00483482   -0.01450401
     atom    6 type  2   force =     0.00412276   -0.01389638    0.00670288
     atom    7 type  2   force =    -0.01430887    0.00490828    0.00306152
     atom    8 type  2   force =    -0.02506427   -0.02541570   -0.02469189

     Total force =     0.072921     Total SCF correction =     0.000452


     Computing stress (Cartesian axis) and pressure

          total   stress  (Ry/bohr**3)                   (kbar)     P=        3.43
   0.00002300   0.00005580   0.00005562            3.38        8.21        8.18
   0.00005580   0.00002354   0.00005583            8.21        3.46        8.21
   0.00005562   0.00005583   0.00002345            8.18        8.21        3.45


     Entering Dynamics;  it =     5   time =  0.00200 pico-seconds

  new lattice vectors (alat unit) :
   0.999881761   0.000019763   0.000021433
   0.000019763   0.999878900   0.000023409
   0.000021433   0.000023409   0.999882650
  new unit-cell volume =   1330.5601 (a.u.)^3
  new positions in cryst coord
Cd      -0.001373678   0.000279518  -0.000600038
Cd       0.000324009   0.510284364   0.511436733
Cd       0.511381689  -0.000737660   0.509486924
Cd       0.510291235   0.510797216   0.000299756
S        0.255290918   0.255045886   0.764817189
S        0.255561234   0.764606468   0.253876756
S        0.764798052   0.255860996   0.257009296
S        0.765394273   0.765530490   0.765340817
  new positions in cart coord (alat unit)
Cd      -0.001373523   0.000279443  -0.000599991
Cd       0.000345017   0.510234547   0.511388668
Cd       0.511332129  -0.000715537   0.509438079
Cd       0.510241000   0.510745450   0.000322615
S        0.255282165   0.255037949   0.764738879
S        0.255551569   0.764524868   0.253870340
S        0.764718188   0.255851142   0.257001516
S        0.765335305   0.765470827   0.765285329

     Ekin =     0.01989699 Ry    T =  232.7 K  Etot =  -582.40595878
     new unit-cell volume =   1330.56007 a.u.^3 (   197.16866 Ang^3 )
     density =      4.86710 g/cm^3

CELL_PARAMETERS (alat= 11.00009582)
   0.999881761   0.000019763   0.000021433
   0.000019763   0.999878900   0.000023409
   0.000021433   0.000023409   0.999882650

ATOMIC_POSITIONS (angstrom)
Cd           -0.0079952779        0.0016266359       -0.0034925451
Cd            0.0020083460        2.9700752975        2.9767934356
Cd            2.9764643210       -0.0041651417        2.9654390570
Cd            2.9701128619        2.9730492659        0.0018779416
S             1.4859974813        1.4845759019        4.4515450164
S             1.4875656826        4.4502992564        1.4777792474
S             4.4514245734        1.4893094972        1.4960058275
S             4.4550168129        4.4558056816        4.4547258987



     Writing output data file ./outdir_1bar_/pwscf.save/
     NEW-OLD atomic charge density approx. for the potential
     extrapolated charge   71.99095, renormalised to   72.00000

     total cpu time spent up to now is     3317.3 secs

     Self-consistent Calculation

     iteration #  1     ecut=    70.00 Ry     beta= 0.70
     Davidson diagonalization with overlap
     ethr =  1.00E-06,  avg # of iterations =  3.0

     Threshold (ethr) on eigenvalues was too large:
     Diagonalizing with lowered threshold

     Davidson diagonalization with overlap
     ethr =  1.38E-08,  avg # of iterations =  2.4

     total cpu time spent up to now is     3564.2 secs

     total energy              =    -582.87812063 Ry
     Harris-Foulkes estimate   =    -582.90152474 Ry
     estimated scf accuracy    <       0.00000948 Ry

     iteration #  2     ecut=    70.00 Ry     beta= 0.70
     Davidson diagonalization with overlap
     ethr =  1.32E-08,  avg # of iterations =  3.0

     total cpu time spent up to now is     3707.2 secs

     total energy              =    -582.87812919 Ry
     Harris-Foulkes estimate   =    -582.87814043 Ry
     estimated scf accuracy    <       0.00002674 Ry

     iteration #  3     ecut=    70.00 Ry     beta= 0.70
     Davidson diagonalization with overlap
     ethr =  1.32E-08,  avg # of iterations =  2.0

     total cpu time spent up to now is     3807.0 secs

     total energy              =    -582.87813109 Ry
     Harris-Foulkes estimate   =    -582.87813212 Ry
     estimated scf accuracy    <       0.00000237 Ry

     iteration #  4     ecut=    70.00 Ry     beta= 0.70
     Davidson diagonalization with overlap
     ethr =  3.30E-09,  avg # of iterations =  2.0

     total cpu time spent up to now is     3904.2 secs

     End of self-consistent calculation

     Number of k-points >= 100: set verbosity='high' to print the bands.

     the Fermi energy is     6.0431 ev

!    total energy              =    -582.87813134 Ry
     Harris-Foulkes estimate   =    -582.87813146 Ry
     estimated scf accuracy    <       0.00000014 Ry

     convergence has been achieved in   4 iterations

     Forces acting on atoms (cartesian axes, Ry/au):

     atom    1 type  1   force =     0.02499106    0.02510700    0.02546671
     atom    2 type  1   force =     0.01571411   -0.00417317   -0.00549061
     atom    3 type  1   force =    -0.00680854    0.01476041   -0.00454492
     atom    4 type  1   force =    -0.00468445   -0.00605813    0.01408234
     atom    5 type  2   force =     0.00617827    0.00463806   -0.01422411
     atom    6 type  2   force =     0.00372064   -0.01343264    0.00700380
     atom    7 type  2   force =    -0.01396097    0.00475004    0.00239308
     atom    8 type  2   force =    -0.02515012   -0.02559157   -0.02468629

     Total force =     0.073248     Total SCF correction =     0.000141


     Computing stress (Cartesian axis) and pressure

          total   stress  (Ry/bohr**3)                   (kbar)     P=        3.14
   0.00002097   0.00005587   0.00005564            3.08        8.22        8.19
   0.00005587   0.00002165   0.00005591            8.22        3.19        8.22
   0.00005564   0.00005591   0.00002151            8.19        8.22        3.16


     Entering Dynamics;  it =     6   time =  0.00250 pico-seconds

  new lattice vectors (alat unit) :
   0.999831063   0.000028181   0.000030540
   0.000028181   0.999827031   0.000033392
   0.000030540   0.000033392   0.999832364
  new unit-cell volume =   1330.3567 (a.u.)^3
  new positions in cryst coord
Cd      -0.001641484   0.000342453  -0.000712981
Cd       0.000393222   0.510281360   0.511663980
Cd       0.511597664  -0.000881013   0.509324330
Cd       0.510289504   0.510896417   0.000363784
S        0.255325776   0.255030564   0.764678084
S        0.255648338   0.764425801   0.253629325
S        0.764655294   0.256008811   0.257385080
S        0.765360201   0.765523344   0.765296397
  new positions in cart coord (alat unit)
Cd      -0.001641218   0.000342324  -0.000712900
Cd       0.000423163   0.510210194   0.511595258
Cd       0.511526767  -0.000849436   0.509254544
Cd       0.510217706   0.510822441   0.000396367
S        0.255313183   0.255019181   0.764566210
S        0.255634438   0.764309252   0.253620141
S        0.764541192   0.255994673   0.257373834
S        0.765275850   0.765438055   0.765217042

     Ekin =     0.01992533 Ry    T =  232.7 K  Etot =  -582.40595776
     new unit-cell volume =   1330.35668 a.u.^3 (   197.13852 Ang^3 )
     density =      4.86784 g/cm^3

CELL_PARAMETERS (alat= 11.00009582)
   0.999831063   0.000028181   0.000030540
   0.000028181   0.999827031   0.000033392
   0.000030540   0.000033392   0.999832364

ATOMIC_POSITIONS (angstrom)
Cd           -0.0095535324        0.0019926686       -0.0041497924
Cd            0.0024632303        2.9699335387        2.9779959963
Cd            2.9775973103       -0.0049445666        2.9643707004
Cd            2.9699772674        2.9734974278        0.0023072545
S             1.4861780361        1.4844666510        4.4505399059
S             1.4880480610        4.4490441576        1.4763228409
S             4.4503942759        1.4901449904        1.4981730887
S             4.4546707221        4.4556149201        4.4543283999



     Writing output data file ./outdir_1bar_/pwscf.save/
     NEW-OLD atomic charge density approx. for the potential
     extrapolated charge   71.98899, renormalised to   72.00000

     total cpu time spent up to now is     3968.6 secs

     Self-consistent Calculation

     iteration #  1     ecut=    70.00 Ry     beta= 0.70
     Davidson diagonalization with overlap
     ethr =  1.00E-06,  avg # of iterations =  3.0

     Threshold (ethr) on eigenvalues was too large:
     Diagonalizing with lowered threshold

     Davidson diagonalization with overlap
     ethr =  2.09E-08,  avg # of iterations =  2.0

     total cpu time spent up to now is     4190.6 secs

     total energy              =    -582.87808845 Ry
     Harris-Foulkes estimate   =    -582.90655608 Ry
     estimated scf accuracy    <       0.00001436 Ry

     iteration #  2     ecut=    70.00 Ry     beta= 0.70
     Davidson diagonalization with overlap
     ethr =  1.99E-08,  avg # of iterations =  3.0

     total cpu time spent up to now is     4324.1 secs

     total energy              =    -582.87810161 Ry
     Harris-Foulkes estimate   =    -582.87811897 Ry
     estimated scf accuracy    <       0.00004129 Ry

     iteration #  3     ecut=    70.00 Ry     beta= 0.70
     Davidson diagonalization with overlap
     ethr =  1.99E-08,  avg # of iterations =  2.0

     total cpu time spent up to now is     4420.2 secs

     total energy              =    -582.87810464 Ry
     Harris-Foulkes estimate   =    -582.87810614 Ry
     estimated scf accuracy    <       0.00000364 Ry

     iteration #  4     ecut=    70.00 Ry     beta= 0.70
     Davidson diagonalization with overlap
     ethr =  5.06E-09,  avg # of iterations =  2.0

     total cpu time spent up to now is     4517.5 secs

     End of self-consistent calculation

     Number of k-points >= 100: set verbosity='high' to print the bands.

     the Fermi energy is     6.0451 ev

!    total energy              =    -582.87810491 Ry
     Harris-Foulkes estimate   =    -582.87810516 Ry
     estimated scf accuracy    <       0.00000028 Ry

     convergence has been achieved in   4 iterations

     Forces acting on atoms (cartesian axes, Ry/au):

     atom    1 type  1   force =     0.02529608    0.02540361    0.02584061
     atom    2 type  1   force =     0.01586805   -0.00407733   -0.00568229
     atom    3 type  1   force =    -0.00727206    0.01471832   -0.00451740
     atom    4 type  1   force =    -0.00470116   -0.00636489    0.01389158
     atom    5 type  2   force =     0.00628851    0.00443902   -0.01392730
     atom    6 type  2   force =     0.00333519   -0.01297504    0.00729211
     atom    7 type  2   force =    -0.01361597    0.00458490    0.00174586
     atom    8 type  2   force =    -0.02519866   -0.02572859   -0.02464317

     Total force =     0.073476     Total SCF correction =     0.000112


     Computing stress (Cartesian axis) and pressure

          total   stress  (Ry/bohr**3)                   (kbar)     P=        2.65
   0.00001751   0.00005588   0.00005562            2.58        8.22        8.18
   0.00005588   0.00001834   0.00005594            8.22        2.70        8.23
   0.00005562   0.00005594   0.00001815            8.18        8.23        2.67


     Entering Dynamics;  it =     7   time =  0.00300 pico-seconds

  new lattice vectors (alat unit) :
   0.999771242   0.000038088   0.000041249
   0.000038088   0.999765854   0.000045148
   0.000041249   0.000045148   0.999773042
  new unit-cell volume =   1330.1168 (a.u.)^3
  new positions in cryst coord
Cd      -0.001906920   0.000407812  -0.000823483
Cd       0.000463943   0.510277964   0.511890712
Cd       0.511812980  -0.001022988   0.509161289
Cd       0.510287324   0.510995025   0.000429134
S        0.255362731   0.255016717   0.764534334
S        0.255736567   0.764240804   0.253384293
S        0.764507985   0.256158161   0.257761485
S        0.765317754   0.765507649   0.765243783
  new positions in cart coord (alat unit)
Cd      -0.001906502   0.000407606  -0.000823356
Cd       0.000504388   0.510181613   0.511797592
Cd       0.511716862  -0.000980267   0.509066796
Cd       0.510190072   0.510894833   0.000473156
S        0.255345564   0.255001249   0.764382864
S        0.255717626   0.764083041   0.253371838
S        0.764353487   0.256138939   0.257746085
S        0.765203404   0.765392107   0.765136235

     Ekin =     0.01997022 Ry    T =  232.9 K  Etot =  -582.40595556
     new unit-cell volume =   1330.11676 a.u.^3 (   197.10297 Ang^3 )
     density =      4.86872 g/cm^3

CELL_PARAMETERS (alat= 11.00009582)
   0.999771242   0.000038088   0.000041249
   0.000038088   0.999765854   0.000045148
   0.000041249   0.000045148   0.999773042

ATOMIC_POSITIONS (angstrom)
Cd           -0.0110977473        0.0023726764       -0.0047927574
Cd            0.0029360398        2.9697671673        2.9791737807
Cd            2.9787038548       -0.0057061322        2.9632778216
Cd            2.9698164083        2.9739188237        0.0027542417
S             1.4863665297        1.4843622733        4.4494726513
S             1.4885323014        4.4477273802        1.4748774706
S             4.4493016495        1.4909847646        1.5003399580
S             4.4542490133        4.4553474537        4.4538580220



     Writing output data file ./outdir_1bar_/pwscf.save/
     NEW-OLD atomic charge density approx. for the potential
     extrapolated charge   71.98702, renormalised to   72.00000

     total cpu time spent up to now is     4581.8 secs

     Self-consistent Calculation

     iteration #  1     ecut=    70.00 Ry     beta= 0.70
     Davidson diagonalization with overlap
     ethr =  1.00E-06,  avg # of iterations =  3.0

     Threshold (ethr) on eigenvalues was too large:
     Diagonalizing with lowered threshold

     Davidson diagonalization with overlap
     ethr =  3.01E-08,  avg # of iterations =  2.0

     total cpu time spent up to now is     4794.4 secs

     total energy              =    -582.87805747 Ry
     Harris-Foulkes estimate   =    -582.91164529 Ry
     estimated scf accuracy    <       0.00002093 Ry

     iteration #  2     ecut=    70.00 Ry     beta= 0.70
     Davidson diagonalization with overlap
     ethr =  2.91E-08,  avg # of iterations =  3.0

     total cpu time spent up to now is     4929.9 secs

     total energy              =    -582.87807658 Ry
     Harris-Foulkes estimate   =    -582.87810193 Ry
     estimated scf accuracy    <       0.00006007 Ry

     iteration #  3     ecut=    70.00 Ry     beta= 0.70
     Davidson diagonalization with overlap
     ethr =  2.91E-08,  avg # of iterations =  2.0

     total cpu time spent up to now is     5027.0 secs

     total energy              =    -582.87808123 Ry
     Harris-Foulkes estimate   =    -582.87808324 Ry
     estimated scf accuracy    <       0.00000517 Ry

     iteration #  4     ecut=    70.00 Ry     beta= 0.70
     Davidson diagonalization with overlap
     ethr =  7.17E-09,  avg # of iterations =  2.0

     total cpu time spent up to now is     5119.8 secs

     End of self-consistent calculation

     Number of k-points >= 100: set verbosity='high' to print the bands.

     the Fermi energy is     6.0474 ev

!    total energy              =    -582.87808136 Ry
     Harris-Foulkes estimate   =    -582.87808188 Ry
     estimated scf accuracy    <       0.00000057 Ry

     convergence has been achieved in   4 iterations

     Forces acting on atoms (cartesian axes, Ry/au):

     atom    1 type  1   force =     0.02558153    0.02572216    0.02624939
     atom    2 type  1   force =     0.01603537   -0.00396009   -0.00591604
     atom    3 type  1   force =    -0.00779402    0.01466984   -0.00450571
     atom    4 type  1   force =    -0.00467625   -0.00673904    0.01368956
     atom    5 type  2   force =     0.00639793    0.00423974   -0.01362766
     atom    6 type  2   force =     0.00294563   -0.01251433    0.00758310
     atom    7 type  2   force =    -0.01326767    0.00442412    0.00109917
     atom    8 type  2   force =    -0.02522252   -0.02584240   -0.02457180

     Total force =     0.073728     Total SCF correction =     0.000130


     Computing stress (Cartesian axis) and pressure

          total   stress  (Ry/bohr**3)                   (kbar)     P=        1.95
   0.00001266   0.00005585   0.00005554            1.86        8.22        8.17
   0.00005585   0.00001365   0.00005592            8.22        2.01        8.23
   0.00005554   0.00005592   0.00001339            8.17        8.23        1.97


     Entering Dynamics;  it =     8   time =  0.00350 pico-seconds

  new lattice vectors (alat unit) :
   0.999702154   0.000049482   0.000053555
   0.000049482   0.999695234   0.000058677
   0.000053555   0.000058677   0.999704546
  new unit-cell volume =   1329.8398 (a.u.)^3
  new positions in cryst coord
Cd      -0.002169964   0.000475625  -0.000931506
Cd       0.000536188   0.510274184   0.512116911
Cd       0.512027591  -0.001163591   0.508997798
Cd       0.510284696   0.511093006   0.000495788
S        0.255401821   0.255004281   0.764386037
S        0.255825797   0.764051629   0.253141753
S        0.764356236   0.256308996   0.258138304
S        0.765266920   0.765483366   0.765182999
  new positions in cart coord (alat unit)
Cd      -0.002169344   0.000475318  -0.000931319
Cd       0.000588704   0.510148746   0.511995574
Cd       0.511902287  -0.001108034   0.508874766
Cd       0.510158026   0.510962521   0.000552959
S        0.255379305   0.254984054   0.764188836
S        0.255800964   0.763846284   0.253125494
S        0.764155082   0.256283850   0.258118010
S        0.765117845   0.765332838   0.765042822

     Ekin =     0.02003178 Ry    T =  233.1 K  Etot =  -582.40595201
     new unit-cell volume =   1329.83977 a.u.^3 (   197.06192 Ang^3 )
     density =      4.86973 g/cm^3

CELL_PARAMETERS (alat= 11.00009582)
   0.999702154   0.000049482   0.000053555
   0.000049482   0.999695234   0.000058677
   0.000053555   0.000058677   0.999704546

ATOMIC_POSITIONS (angstrom)
Cd           -0.0126277499        0.0027668278       -0.0054212101
Cd            0.0034268433        2.9695758485        2.9803262350
Cd            2.9797832120       -0.0064498633        2.9621600105
Cd            2.9696298691        2.9743128332        0.0032187736
S             1.4865629324        1.4842621782        4.4483432154
S             1.4890174119        4.4463492178        1.4734434986
S             4.4481467341        1.4918282913        1.5025049343
S             4.4537509737        4.4550024485        4.4533142650



     Writing output data file ./outdir_1bar_/pwscf.save/
     NEW-OLD atomic charge density approx. for the potential
     extrapolated charge   71.98501, renormalised to   72.00000

     total cpu time spent up to now is     5183.2 secs

     Self-consistent Calculation

     iteration #  1     ecut=    70.00 Ry     beta= 0.70
     Davidson diagonalization with overlap
     ethr =  1.00E-06,  avg # of iterations =  3.0

     Threshold (ethr) on eigenvalues was too large:
     Diagonalizing with lowered threshold

     Davidson diagonalization with overlap
     ethr =  4.33E-08,  avg # of iterations =  1.5

     total cpu time spent up to now is     5395.5 secs

     total energy              =    -582.87802657 Ry
     Harris-Foulkes estimate   =    -582.91681484 Ry
     estimated scf accuracy    <       0.00003045 Ry

     iteration #  2     ecut=    70.00 Ry     beta= 0.70
     Davidson diagonalization with overlap
     ethr =  4.23E-08,  avg # of iterations =  3.0

     total cpu time spent up to now is     5528.4 secs

     total energy              =    -582.87805353 Ry
     Harris-Foulkes estimate   =    -582.87808982 Ry
     estimated scf accuracy    <       0.00008524 Ry

     iteration #  3     ecut=    70.00 Ry     beta= 0.70
     Davidson diagonalization with overlap
     ethr =  4.23E-08,  avg # of iterations =  2.0

     total cpu time spent up to now is     5624.6 secs

     total energy              =    -582.87806061 Ry
     Harris-Foulkes estimate   =    -582.87806318 Ry
     estimated scf accuracy    <       0.00000693 Ry

     iteration #  4     ecut=    70.00 Ry     beta= 0.70
     Davidson diagonalization with overlap
     ethr =  9.62E-09,  avg # of iterations =  2.0

     total cpu time spent up to now is     5712.9 secs

     total energy              =    -582.87806093 Ry
     Harris-Foulkes estimate   =    -582.87806141 Ry
     estimated scf accuracy    <       0.00000100 Ry

     iteration #  5     ecut=    70.00 Ry     beta= 0.70
     Davidson diagonalization with overlap
     ethr =  1.39E-09,  avg # of iterations =  2.0

     total cpu time spent up to now is     5807.9 secs

     End of self-consistent calculation

     Number of k-points >= 100: set verbosity='high' to print the bands.

     the Fermi energy is     6.0496 ev

!    total energy              =    -582.87806116 Ry
     Harris-Foulkes estimate   =    -582.87806118 Ry
     estimated scf accuracy    <       0.00000002 Ry

     convergence has been achieved in   5 iterations

     Forces acting on atoms (cartesian axes, Ry/au):

     atom    1 type  1   force =     0.02583224    0.02605897    0.02662544
     atom    2 type  1   force =     0.01622097   -0.00390680   -0.00612692
     atom    3 type  1   force =    -0.00827560    0.01463901   -0.00455726
     atom    4 type  1   force =    -0.00469863   -0.00709942    0.01354730
     atom    5 type  2   force =     0.00648994    0.00404679   -0.01334244
     atom    6 type  2   force =     0.00257985   -0.01207843    0.00784127
     atom    7 type  2   force =    -0.01293449    0.00426197    0.00049068
     atom    8 type  2   force =    -0.02521428   -0.02592210   -0.02447807

     Total force =     0.073986     Total SCF correction =     0.000181


     Computing stress (Cartesian axis) and pressure

          total   stress  (Ry/bohr**3)                   (kbar)     P=        4.45
   0.00002960   0.00005570   0.00005536            4.35        8.19        8.14
   0.00005570   0.00003074   0.00005581            8.19        4.52        8.21
   0.00005536   0.00005581   0.00003042            8.14        8.21        4.48


     Entering Dynamics;  it =     9   time =  0.00400 pico-seconds

  new lattice vectors (alat unit) :
   0.999624295   0.000062357   0.000067448
   0.000062357   0.999615674   0.000073976
   0.000067448   0.000073976   0.999627376
  new unit-cell volume =   1329.5277 (a.u.)^3
  new positions in cryst coord
Cd      -0.002430596   0.000545929  -0.001037016
Cd       0.000609975   0.510270025   0.512342560
Cd       0.512241457  -0.001302827   0.508833850
Cd       0.510281618   0.511190326   0.000563733
S        0.255443078   0.254993192   0.764233281
S        0.255915909   0.763858414   0.252901787
S        0.764200151   0.256461263   0.258515340
S        0.765207701   0.765450467   0.765114072
  new positions in cart coord (alat unit)
Cd      -0.002429719   0.000545491  -0.001036753
Cd       0.000676122   0.510111854   0.512189437
Cd       0.512083243  -0.001232743   0.508678699
Cd       0.510121817   0.511025724   0.000635756
S        0.255414553   0.254967655   0.763984602
S        0.255884449   0.763599511   0.252881317
S        0.763946466   0.256429475   0.258489527
S        0.765019545   0.765260601   0.764937209

     Ekin =     0.02010857 Ry    T =  233.3 K  Etot =  -582.40594917
     new unit-cell volume =   1329.52773 a.u.^3 (   197.01568 Ang^3 )
     density =      4.87087 g/cm^3

CELL_PARAMETERS (alat= 11.00009582)
   0.999624295   0.000062357   0.000067448
   0.000062357   0.999615674   0.000073976
   0.000067448   0.000073976   0.999627376

ATOMIC_POSITIONS (angstrom)
Cd           -0.0141433948        0.0031753031       -0.0060349416
Cd            0.0039357037        2.9693611034        2.9814547155
Cd            2.9808365587       -0.0071757976        2.9610187077
Cd            2.9694190978        2.9746807366        0.0037007385
S             1.4867681139        1.4841667192        4.4471543697
S             1.4895033805        4.4449127514        1.4720221488
S             4.4469323764        1.4926759750        1.5046675343
S             4.4531787738        4.4545819594        4.4526994945



     Writing output data file ./outdir_1bar_/pwscf.save/
     NEW-OLD atomic charge density approx. for the potential
     extrapolated charge   71.98311, renormalised to   72.00000

     total cpu time spent up to now is     5874.6 secs

     Self-consistent Calculation

     iteration #  1     ecut=    70.00 Ry     beta= 0.70
     Davidson diagonalization with overlap
     ethr =  1.00E-06,  avg # of iterations =  3.0

     Threshold (ethr) on eigenvalues was too large:
     Diagonalizing with lowered threshold

     Davidson diagonalization with overlap
     ethr =  3.52E-08,  avg # of iterations =  1.8

     total cpu time spent up to now is     6096.1 secs

     total energy              =    -582.87801074 Ry
     Harris-Foulkes estimate   =    -582.92170385 Ry
     estimated scf accuracy    <       0.00002444 Ry

     iteration #  2     ecut=    70.00 Ry     beta= 0.70
     Davidson diagonalization with overlap
     ethr =  3.39E-08,  avg # of iterations =  3.0

     total cpu time spent up to now is     6232.9 secs

     total energy              =    -582.87803788 Ry
     Harris-Foulkes estimate   =    -582.87807166 Ry
     estimated scf accuracy    <       0.00008428 Ry

     iteration #  3     ecut=    70.00 Ry     beta= 0.70
     Davidson diagonalization with overlap
     ethr =  3.39E-08,  avg # of iterations =  2.0

     total cpu time spent up to now is     6332.6 secs

     total energy              =    -582.87804295 Ry
     Harris-Foulkes estimate   =    -582.87804621 Ry
     estimated scf accuracy    <       0.00000933 Ry

     iteration #  4     ecut=    70.00 Ry     beta= 0.70
     Davidson diagonalization with overlap
     ethr =  1.30E-08,  avg # of iterations =  2.0

     total cpu time spent up to now is     6417.5 secs

     total energy              =    -582.87804259 Ry
     Harris-Foulkes estimate   =    -582.87804369 Ry
     estimated scf accuracy    <       0.00000189 Ry

     iteration #  5     ecut=    70.00 Ry     beta= 0.70
     Davidson diagonalization with overlap
     ethr =  2.62E-09,  avg # of iterations =  2.0

     total cpu time spent up to now is     6518.1 secs

     End of self-consistent calculation

     Number of k-points >= 100: set verbosity='high' to print the bands.

     the Fermi energy is     6.0523 ev

!    total energy              =    -582.87804323 Ry
     Harris-Foulkes estimate   =    -582.87804329 Ry
     estimated scf accuracy    <       0.00000007 Ry

     convergence has been achieved in   5 iterations

     Forces acting on atoms (cartesian axes, Ry/au):

     atom    1 type  1   force =     0.02607490    0.02635232    0.02700295
     atom    2 type  1   force =     0.01639002   -0.00379852   -0.00636768
     atom    3 type  1   force =    -0.00880694    0.01458219   -0.00455858
     atom    4 type  1   force =    -0.00467824   -0.00748272    0.01334221
     atom    5 type  2   force =     0.00659045    0.00383633   -0.01303547
     atom    6 type  2   force =     0.00218819   -0.01161308    0.00811258
     atom    7 type  2   force =    -0.01257943    0.00410311   -0.00014500
     atom    8 type  2   force =    -0.02517895   -0.02597963   -0.02435102

     Total force =     0.074192     Total SCF correction =     0.000250


     Computing stress (Cartesian axis) and pressure

          total   stress  (Ry/bohr**3)                   (kbar)     P=        5.84
   0.00003899   0.00005551   0.00005515            5.74        8.17        8.11
   0.00005551   0.00004029   0.00005565            8.17        5.93        8.19
   0.00005515   0.00005565   0.00003990            8.11        8.19        5.87


     Entering Dynamics;  it =    10   time =  0.00450 pico-seconds

  new lattice vectors (alat unit) :
   0.999537941   0.000076707   0.000082921
   0.000076707   0.999527458   0.000091041
   0.000082921   0.000091041   0.999541812
  new unit-cell volume =   1329.1818 (a.u.)^3
  new positions in cryst coord
Cd      -0.002688799   0.000618754  -0.001139978
Cd       0.000685323   0.510265496   0.512567639
Cd       0.512454531  -0.001440705   0.508669440
Cd       0.510278092   0.511286951   0.000632952
S        0.255486538   0.254983380   0.764076167
S        0.256006775   0.763661312   0.252664482
S        0.764039844   0.256614911   0.258892389
S        0.765140107   0.765408933   0.765037045
  new positions in cart coord (alat unit)
Cd      -0.002687603   0.000618151  -0.001139622
Cd       0.000766650   0.510071091   0.512379299
Cd       0.512259815  -0.001354405   0.508478736
Cd       0.510081585   0.511084546   0.000721523
S        0.255451404   0.254952050   0.763770475
S        0.255968014   0.763343091   0.252639467
S        0.763727964   0.256575827   0.258860485
S        0.764908717   0.765175586   0.764819643

     Ekin =     0.02019551 Ry    T =  233.7 K  Etot =  -582.40595035
     new unit-cell volume =   1329.18176 a.u.^3 (   196.96441 Ang^3 )
     density =      4.87214 g/cm^3

CELL_PARAMETERS (alat= 11.00009582)
   0.999537941   0.000076707   0.000082921
   0.000076707   0.999527458   0.000091041
   0.000082921   0.000091041   0.999541812

ATOMIC_POSITIONS (angstrom)
Cd           -0.0156445387        0.0035982581       -0.0066337415
Cd            0.0044626671        2.9691238227        2.9825598986
Cd            2.9818643828       -0.0078839929        2.9598547216
Cd            2.9691849056        2.9750231402        0.0041999829
S             1.4869826249        1.4840758802        4.4459079378
S             1.4899898088        4.4434201315        1.4706143359
S             4.4456604775        1.4935278900        1.5068268837
S             4.4525336417        4.4540870885        4.4520151437



     Writing output data file ./outdir_1bar_/pwscf.save/
     NEW-OLD atomic charge density approx. for the potential
     extrapolated charge   71.98126, renormalised to   72.00000

     total cpu time spent up to now is     6584.2 secs

     Self-consistent Calculation

     iteration #  1     ecut=    70.00 Ry     beta= 0.70
     Davidson diagonalization with overlap
     ethr =  1.00E-06,  avg # of iterations =  3.0

     Threshold (ethr) on eigenvalues was too large:
     Diagonalizing with lowered threshold

     Davidson diagonalization with overlap
     ethr =  3.39E-08,  avg # of iterations =  1.9

     total cpu time spent up to now is     6806.7 secs

     total energy              =    -582.87799334 Ry
     Harris-Foulkes estimate   =    -582.92643962 Ry
     estimated scf accuracy    <       0.00002341 Ry

     iteration #  2     ecut=    70.00 Ry     beta= 0.70
     Davidson diagonalization with overlap
     ethr =  3.25E-08,  avg # of iterations =  3.0

     total cpu time spent up to now is     6946.8 secs

     total energy              =    -582.87802337 Ry
     Harris-Foulkes estimate   =    -582.87805865 Ry
     estimated scf accuracy    <       0.00009141 Ry

     iteration #  3     ecut=    70.00 Ry     beta= 0.70
     Davidson diagonalization with overlap
     ethr =  3.25E-08,  avg # of iterations =  2.3

     total cpu time spent up to now is     7056.5 secs

     total energy              =    -582.87802771 Ry
     Harris-Foulkes estimate   =    -582.87803165 Ry
     estimated scf accuracy    <       0.00001193 Ry

     iteration #  4     ecut=    70.00 Ry     beta= 0.70
     Davidson diagonalization with overlap
     ethr =  1.66E-08,  avg # of iterations =  1.2

     total cpu time spent up to now is     7135.4 secs

     total energy              =    -582.87802682 Ry
     Harris-Foulkes estimate   =    -582.87802845 Ry
     estimated scf accuracy    <       0.00000301 Ry

     iteration #  5     ecut=    70.00 Ry     beta= 0.70
     Davidson diagonalization with overlap
     ethr =  4.17E-09,  avg # of iterations =  2.0

     total cpu time spent up to now is     7243.7 secs

     End of self-consistent calculation

     Number of k-points >= 100: set verbosity='high' to print the bands.

     the Fermi energy is     6.0554 ev

!    total energy              =    -582.87802776 Ry
     Harris-Foulkes estimate   =    -582.87802779 Ry
     estimated scf accuracy    <       0.00000004 Ry

     convergence has been achieved in   5 iterations

     Forces acting on atoms (cartesian axes, Ry/au):

     atom    1 type  1   force =     0.02630522    0.02661118    0.02733397
     atom    2 type  1   force =     0.01654414   -0.00370176   -0.00659409
     atom    3 type  1   force =    -0.00932654    0.01452668   -0.00454094
     atom    4 type  1   force =    -0.00467316   -0.00784941    0.01312893
     atom    5 type  2   force =     0.00669025    0.00362263   -0.01272365
     atom    6 type  2   force =     0.00179020   -0.01114052    0.00838807
     atom    7 type  2   force =    -0.01221496    0.00394364   -0.00079306
     atom    8 type  2   force =    -0.02511515   -0.02601243   -0.02419924

     Total force =     0.074354     Total SCF correction =     0.000284


     Computing stress (Cartesian axis) and pressure

          total   stress  (Ry/bohr**3)                   (kbar)     P=        5.68
   0.00003777   0.00005528   0.00005488            5.56        8.13        8.07
   0.00005528   0.00003923   0.00005546            8.13        5.77        8.16
   0.00005488   0.00005546   0.00003875            8.07        8.16        5.70


     Entering Dynamics;  it =    11   time =  0.00500 pico-seconds

  new lattice vectors (alat unit) :
   0.999443055   0.000092525   0.000099963
   0.000092525   0.999430558   0.000109867
   0.000099963   0.000109867   0.999447820
  new unit-cell volume =   1328.8018 (a.u.)^3
  new positions in cryst coord
Cd      -0.002944552   0.000694126  -0.001240361
Cd       0.000762246   0.510260604   0.512792132
Cd       0.512666769  -0.001577231   0.508504569
Cd       0.510274116   0.511382846   0.000703425
S        0.255532235   0.254974775   0.763914794
S        0.256098266   0.763460476   0.252429928
S        0.763875430   0.256769891   0.259269243
S        0.765064157   0.765358749   0.764951964
  new positions in cart coord (alat unit)
Cd      -0.002942972   0.000693322  -0.001239894
Cd       0.000860293   0.510026450   0.512565115
Cd       0.512431927  -0.001473031   0.508274857
Cd       0.510037308   0.511138933   0.000810229
S        0.255489872   0.254937154   0.763546532
S        0.256051506   0.763077158   0.252400020
S        0.763499668   0.256722838   0.259230649
S        0.764785340   0.765077751   0.764690139

     Ekin =     0.02029476 Ry    T =  234.0 K  Etot =  -582.40595323
     new unit-cell volume =   1328.80176 a.u.^3 (   196.90810 Ang^3 )
     density =      4.87354 g/cm^3

CELL_PARAMETERS (alat= 11.00009582)
   0.999443055   0.000092525   0.000099963
   0.000092525   0.999430558   0.000109867
   0.000099963   0.000109867   0.999447820

ATOMIC_POSITIONS (angstrom)
Cd           -0.0171310416        0.0040358288       -0.0072174234
Cd            0.0050077645        2.9688639643        2.9836415364
Cd            2.9828662481       -0.0085745108        2.9586679446
Cd            2.9689271681        2.9753397314        0.0047163414
S             1.4872065458        1.4839891711        4.4446043642
S             1.4904758170        4.4418721368        1.4692205176
S             4.4443315695        1.4943836387        1.5089816094
S             4.4518154653        4.4535175911        4.4512612966



     Writing output data file ./outdir_1bar_/pwscf.save/
     NEW-OLD atomic charge density approx. for the potential
     extrapolated charge   71.97942, renormalised to   72.00000

     total cpu time spent up to now is     7312.2 secs

     Self-consistent Calculation

     iteration #  1     ecut=    70.00 Ry     beta= 0.70
     Davidson diagonalization with overlap
     ethr =  1.00E-06,  avg # of iterations =  3.0

     Threshold (ethr) on eigenvalues was too large:
     Diagonalizing with lowered threshold

     Davidson diagonalization with overlap
     ethr =  4.30E-08,  avg # of iterations =  1.6

     total cpu time spent up to now is     7542.1 secs

     total energy              =    -582.87797121 Ry
     Harris-Foulkes estimate   =    -582.93119569 Ry
     estimated scf accuracy    <       0.00002989 Ry

     iteration #  2     ecut=    70.00 Ry     beta= 0.70
     Davidson diagonalization with overlap
     ethr =  4.15E-08,  avg # of iterations =  3.0

     total cpu time spent up to now is     7690.6 secs

     total energy              =    -582.87800854 Ry
     Harris-Foulkes estimate   =    -582.87805289 Ry
     estimated scf accuracy    <       0.00011397 Ry

     iteration #  3     ecut=    70.00 Ry     beta= 0.70
     Davidson diagonalization with overlap
     ethr =  4.15E-08,  avg # of iterations =  2.3

     total cpu time spent up to now is     7795.3 secs

     total energy              =    -582.87801455 Ry
     Harris-Foulkes estimate   =    -582.87801906 Ry
     estimated scf accuracy    <       0.00001435 Ry

     iteration #  4     ecut=    70.00 Ry     beta= 0.70
     Davidson diagonalization with overlap
     ethr =  1.99E-08,  avg # of iterations =  1.2

     total cpu time spent up to now is     7875.0 secs

     total energy              =    -582.87801323 Ry
     Harris-Foulkes estimate   =    -582.87801537 Ry
     estimated scf accuracy    <       0.00000400 Ry

     iteration #  5     ecut=    70.00 Ry     beta= 0.70
     Davidson diagonalization with overlap
     ethr =  5.55E-09,  avg # of iterations =  2.0

     total cpu time spent up to now is     7980.1 secs

     End of self-consistent calculation

     Number of k-points >= 100: set verbosity='high' to print the bands.

     the Fermi energy is     6.0587 ev

!    total energy              =    -582.87801441 Ry
     Harris-Foulkes estimate   =    -582.87801442 Ry
     estimated scf accuracy    <       0.00000003 Ry

     convergence has been achieved in   5 iterations

     Forces acting on atoms (cartesian axes, Ry/au):

     atom    1 type  1   force =     0.02650983    0.02682713    0.02760885
     atom    2 type  1   force =     0.01670293   -0.00364802   -0.00681032
     atom    3 type  1   force =    -0.00980693    0.01447962   -0.00455620
     atom    4 type  1   force =    -0.00469210   -0.00818917    0.01295083
     atom    5 type  2   force =     0.00677916    0.00340322   -0.01239751
     atom    6 type  2   force =     0.00137456   -0.01064859    0.00866638
     atom    7 type  2   force =    -0.01184240    0.00378631   -0.00144952
     atom    8 type  2   force =    -0.02502505   -0.02601050   -0.02401252

     Total force =     0.074461     Total SCF correction =     0.000265


     Computing stress (Cartesian axis) and pressure

          total   stress  (Ry/bohr**3)                   (kbar)     P=        5.69
   0.00003779   0.00005500   0.00005457            5.56        8.09        8.03
   0.00005500   0.00003942   0.00005521            8.09        5.80        8.12
   0.00005457   0.00005521   0.00003884            8.03        8.12        5.71


     Entering Dynamics;  it =    12   time =  0.00550 pico-seconds

  new lattice vectors (alat unit) :
   0.999339640   0.000109800   0.000118563
   0.000109800   0.999324981   0.000130447
   0.000118563   0.000130447   0.999345406
  new unit-cell volume =   1328.3878 (a.u.)^3
  new positions in cryst coord
Cd      -0.003197842   0.000772070  -0.001338140
Cd       0.000840760   0.510255354   0.513016020
Cd       0.512878129  -0.001712412   0.508339231
Cd       0.510269689   0.511477982   0.000775136
S        0.255580202   0.254967305   0.763749265
S        0.256190248   0.763256064   0.252198214
S        0.763707027   0.256926152   0.259645689
S        0.764979879   0.765299915   0.764858890
  new positions in cart coord (alat unit)
Cd      -0.003195804   0.000771023  -0.001337542
Cd       0.000957056   0.509977936   0.512746863
Cd       0.512599527  -0.001588630   0.508067060
Cd       0.509988980   0.511188854   0.000901848
S        0.255529975   0.254922889   0.763312881
S        0.256134777   0.762801880   0.252163065
S        0.763261701   0.256870447   0.259599789
S        0.764649431   0.764967092   0.764548747

     Ekin =     0.02040865 Ry    T =  234.5 K  Etot =  -582.40595514
     new unit-cell volume =   1328.38776 a.u.^3 (   196.84675 Ang^3 )
     density =      4.87505 g/cm^3

CELL_PARAMETERS (alat= 11.00009582)
   0.999339640   0.000109800   0.000118563
   0.000109800   0.999324981   0.000130447
   0.000118563   0.000130447   0.999345406

ATOMIC_POSITIONS (angstrom)
Cd           -0.0186027779        0.0044881273       -0.0077858322
Cd            0.0055710212        2.9685815665        2.9846994910
Cd            2.9838418457       -0.0092474172        2.9574583554
Cd            2.9686458521        2.9756303179        0.0052496596
S             1.4874399828        1.4839061358        4.4432442786
S             1.4909605374        4.4402697426        1.4678412013
S             4.4429463593        1.4952428744        1.5111303693
S             4.4510243351        4.4528734403        4.4504382547



     Writing output data file ./outdir_1bar_/pwscf.save/
     NEW-OLD atomic charge density approx. for the potential
     extrapolated charge   71.97757, renormalised to   72.00000

     total cpu time spent up to now is     8047.1 secs

     Self-consistent Calculation

     iteration #  1     ecut=    70.00 Ry     beta= 0.70
     Davidson diagonalization with overlap
     ethr =  1.00E-06,  avg # of iterations =  3.0

     Threshold (ethr) on eigenvalues was too large:
     Diagonalizing with lowered threshold

     Davidson diagonalization with overlap
     ethr =  5.23E-08,  avg # of iterations =  1.3

     total cpu time spent up to now is     8269.5 secs

     total energy              =    -582.87795049 Ry
     Harris-Foulkes estimate   =    -582.93594996 Ry
     estimated scf accuracy    <       0.00003650 Ry

     iteration #  2     ecut=    70.00 Ry     beta= 0.70
     Davidson diagonalization with overlap
     ethr =  5.07E-08,  avg # of iterations =  3.0

     total cpu time spent up to now is     8407.6 secs

     total energy              =    -582.87799551 Ry
     Harris-Foulkes estimate   =    -582.87804939 Ry
     estimated scf accuracy    <       0.00013793 Ry

     iteration #  3     ecut=    70.00 Ry     beta= 0.70
     Davidson diagonalization with overlap
     ethr =  5.07E-08,  avg # of iterations =  2.2

     total cpu time spent up to now is     8509.2 secs

     total energy              =    -582.87800317 Ry
     Harris-Foulkes estimate   =    -582.87800836 Ry
     estimated scf accuracy    <       0.00001706 Ry

     iteration #  4     ecut=    70.00 Ry     beta= 0.70
     Davidson diagonalization with overlap
     ethr =  2.37E-08,  avg # of iterations =  1.2

     total cpu time spent up to now is     8581.9 secs

     total energy              =    -582.87800144 Ry
     Harris-Foulkes estimate   =    -582.87800410 Ry
     estimated scf accuracy    <       0.00000508 Ry

     iteration #  5     ecut=    70.00 Ry     beta= 0.70
     Davidson diagonalization with overlap
     ethr =  7.05E-09,  avg # of iterations =  2.0

     total cpu time spent up to now is     8674.6 secs

     End of self-consistent calculation

     Number of k-points >= 100: set verbosity='high' to print the bands.

     the Fermi energy is     6.0623 ev

!    total energy              =    -582.87800283 Ry
     Harris-Foulkes estimate   =    -582.87800284 Ry
     estimated scf accuracy    <       0.00000002 Ry

     convergence has been achieved in   5 iterations

     Forces acting on atoms (cartesian axes, Ry/au):

     atom    1 type  1   force =     0.02669582    0.02702895    0.02787428
     atom    2 type  1   force =     0.01685970   -0.00360108   -0.00704010
     atom    3 type  1   force =    -0.01029839    0.01443845   -0.00457949
     atom    4 type  1   force =    -0.00471195   -0.00854420    0.01277441
     atom    5 type  2   force =     0.00686882    0.00317433   -0.01206248
     atom    6 type  2   force =     0.00094900   -0.01014504    0.00894432
     atom    7 type  2   force =    -0.01145846    0.00362918   -0.00211528
     atom    8 type  2   force =    -0.02490454   -0.02598058   -0.02379566

     Total force =     0.074551     Total SCF correction =     0.000240


     Computing stress (Cartesian axis) and pressure

          total   stress  (Ry/bohr**3)                   (kbar)     P=        5.65
   0.00003744   0.00005466   0.00005421            5.51        8.04        7.97
   0.00005466   0.00003924   0.00005491            8.04        5.77        8.08
   0.00005421   0.00005491   0.00003855            7.97        8.08        5.67


     Entering Dynamics;  it =    13   time =  0.00600 pico-seconds

  new lattice vectors (alat unit) :
   0.999227685   0.000128523   0.000138708
   0.000128523   0.999210728   0.000152772
   0.000138708   0.000152772   0.999234561
  new unit-cell volume =   1327.9398 (a.u.)^3
  new positions in cryst coord
Cd      -0.003448654   0.000852608  -0.001433289
Cd       0.000920883   0.510249749   0.513239285
Cd       0.513088569  -0.001846253   0.508173421
Cd       0.510264808   0.511572325   0.000848071
S        0.255630470   0.254960895   0.763579687
S        0.256282581   0.763048239   0.251969430
S        0.763534758   0.257083645   0.260021512
S        0.764887309   0.765232438   0.764757892
  new positions in cart coord (alat unit)
Cd      -0.003446080   0.000851273  -0.001432540
Cd       0.001056941   0.509925550   0.512924511
Cd       0.512762554  -0.001701217   0.507855333
Cd       0.509936589   0.511234266   0.000996354
S        0.255571726   0.254909169   0.763069623
S        0.256217670   0.762517419   0.251928684
S        0.763014177   0.257018592   0.259967665
S        0.764501003   0.764843601   0.764395519

     Ekin =     0.02053619 Ry    T =  234.9 K  Etot =  -582.40595674
     new unit-cell volume =   1327.93975 a.u.^3 (   196.78037 Ang^3 )
     density =      4.87670 g/cm^3

CELL_PARAMETERS (alat= 11.00009582)
   0.999227685   0.000128523   0.000138708
   0.000128523   0.999210728   0.000152772
   0.000138708   0.000152772   0.999234561

ATOMIC_POSITIONS (angstrom)
Cd           -0.0200596326        0.0049552584       -0.0083388178
Cd            0.0061524526        2.9682766279        2.9857335793
Cd            2.9847908241       -0.0099027840        2.9562258910
Cd            2.9683408873        2.9758946628        0.0057997748
S             1.4876830183        1.4838262754        4.4418282750
S             1.4914430583        4.4386138955        1.4664768682
S             4.4415055235        1.4961052254        1.5132717776
S             4.4501603392        4.4521546032        4.4495463154



     Writing output data file ./outdir_1bar_/pwscf.save/
     NEW-OLD atomic charge density approx. for the potential
     extrapolated charge   71.97572, renormalised to   72.00000

     total cpu time spent up to now is     8737.4 secs

     Self-consistent Calculation

     iteration #  1     ecut=    70.00 Ry     beta= 0.70
     Davidson diagonalization with overlap
     ethr =  1.00E-06,  avg # of iterations =  3.0

     Threshold (ethr) on eigenvalues was too large:
     Diagonalizing with lowered threshold

     Davidson diagonalization with overlap
     ethr =  6.32E-08,  avg # of iterations =  1.1

     total cpu time spent up to now is     8952.2 secs

     total energy              =    -582.87792993 Ry
     Harris-Foulkes estimate   =    -582.94070808 Ry
     estimated scf accuracy    <       0.00004426 Ry

     iteration #  2     ecut=    70.00 Ry     beta= 0.70
     Davidson diagonalization with overlap
     ethr =  6.15E-08,  avg # of iterations =  3.0

     total cpu time spent up to now is     9085.1 secs

     total energy              =    -582.87798358 Ry
     Harris-Foulkes estimate   =    -582.87804835 Ry
     estimated scf accuracy    <       0.00016501 Ry

     iteration #  3     ecut=    70.00 Ry     beta= 0.70
     Davidson diagonalization with overlap
     ethr =  6.15E-08,  avg # of iterations =  2.3

     total cpu time spent up to now is     9185.3 secs

     total energy              =    -582.87799322 Ry
     Harris-Foulkes estimate   =    -582.87799912 Ry
     estimated scf accuracy    <       0.00001997 Ry

     iteration #  4     ecut=    70.00 Ry     beta= 0.70
     Davidson diagonalization with overlap
     ethr =  2.77E-08,  avg # of iterations =  1.2

     total cpu time spent up to now is     9258.6 secs

     total energy              =    -582.87799105 Ry
     Harris-Foulkes estimate   =    -582.87799426 Ry
     estimated scf accuracy    <       0.00000625 Ry

     iteration #  5     ecut=    70.00 Ry     beta= 0.70
     Davidson diagonalization with overlap
     ethr =  8.67E-09,  avg # of iterations =  2.0

     total cpu time spent up to now is     9352.2 secs

     End of self-consistent calculation

     Number of k-points >= 100: set verbosity='high' to print the bands.

     the Fermi energy is     6.0661 ev

!    total energy              =    -582.87799266 Ry
     Harris-Foulkes estimate   =    -582.87799266 Ry
     estimated scf accuracy    <       0.00000001 Ry

     convergence has been achieved in   5 iterations

     Forces acting on atoms (cartesian axes, Ry/au):

     atom    1 type  1   force =     0.02685789    0.02720272    0.02810692
     atom    2 type  1   force =     0.01701000   -0.00355662   -0.00727319
     atom    3 type  1   force =    -0.01079753    0.01438912   -0.00460337
     atom    4 type  1   force =    -0.00473690   -0.00890351    0.01259039
     atom    5 type  2   force =     0.00695690    0.00294424   -0.01171923
     atom    6 type  2   force =     0.00052382   -0.00963364    0.00922011
     atom    7 type  2   force =    -0.01106564    0.00347547   -0.00277507
     atom    8 type  2   force =    -0.02474853   -0.02591777   -0.02354656

     Total force =     0.074597     Total SCF correction =     0.000219


     Computing stress (Cartesian axis) and pressure

          total   stress  (Ry/bohr**3)                   (kbar)     P=        5.61
   0.00003707   0.00005425   0.00005378            5.45        7.98        7.91
   0.00005425   0.00003904   0.00005455            7.98        5.74        8.02
   0.00005378   0.00005455   0.00003824            7.91        8.02        5.63


[...]
     Davidson diagonalization with overlap
     ethr =  3.44E-07,  avg # of iterations =  2.7

     total cpu time spent up to now is    84090.4 secs

     total energy              =    -582.83815774 Ry
     Harris-Foulkes estimate   =    -582.83818527 Ry
     estimated scf accuracy    <       0.00011965 Ry

     iteration #  4     ecut=    70.00 Ry     beta= 0.70
     Davidson diagonalization with overlap
     ethr =  1.66E-07,  avg # of iterations =  1.0

     total cpu time spent up to now is    84158.8 secs

     total energy              =    -582.83814521 Ry
     Harris-Foulkes estimate   =    -582.83816127 Ry
     estimated scf accuracy    <       0.00005273 Ry

     iteration #  5     ecut=    70.00 Ry     beta= 0.70
     Davidson diagonalization with overlap
     ethr =  7.32E-08,  avg # of iterations =  2.0

     total cpu time spent up to now is    84239.2 secs

     total energy              =    -582.83814360 Ry
     Harris-Foulkes estimate   =    -582.83814963 Ry
     estimated scf accuracy    <       0.00001043 Ry

     iteration #  6     ecut=    70.00 Ry     beta= 0.70
     Davidson diagonalization with overlap
     ethr =  1.45E-08,  avg # of iterations =  2.0

     total cpu time spent up to now is    84331.4 secs

     End of self-consistent calculation

     Number of k-points >= 100: set verbosity='high' to print the bands.

     the Fermi energy is     7.7216 ev

!    total energy              =    -582.83814646 Ry
     Harris-Foulkes estimate   =    -582.83814655 Ry
     estimated scf accuracy    <       0.00000012 Ry

     convergence has been achieved in   6 iterations

     Forces acting on atoms (cartesian axes, Ry/au):

     atom    1 type  1   force =     0.01133744   -0.00749941   -0.00650030
     atom    2 type  1   force =     0.00833026   -0.01284408   -0.01110392
     atom    3 type  1   force =    -0.02223716    0.00467771   -0.00827824
     atom    4 type  1   force =    -0.02939773   -0.01108353   -0.00037248
     atom    5 type  2   force =    -0.00441402   -0.00750898    0.01769031
     atom    6 type  2   force =    -0.00466218    0.01526866   -0.01119415
     atom    7 type  2   force =     0.01908550   -0.00635935    0.00194547
     atom    8 type  2   force =     0.02195790    0.02534899    0.01781330

     Total force =     0.069111     Total SCF correction =     0.000165


     Computing stress (Cartesian axis) and pressure

          total   stress  (Ry/bohr**3)                   (kbar)     P=       91.64
   0.00061768  -0.00007214  -0.00006697           90.86      -10.61       -9.85
  -0.00007214   0.00062222  -0.00010949          -10.61       91.53      -16.11
  -0.00006697  -0.00010949   0.00062900           -9.85      -16.11       92.53


     Entering Dynamics;  it =   119   time =  0.05903 pico-seconds

  new lattice vectors (alat unit) :
   0.962969559   0.002018671   0.003203659
   0.002018671   0.963258102   0.003423512
   0.003203659   0.003423512   0.963284035
  new unit-cell volume =   1189.2874 (a.u.)^3
  new positions in cryst coord
Cd      -0.018700211   0.020563493   0.000239228
Cd       0.020017541   0.507169998   0.528682318
Cd       0.521632603  -0.010409150   0.486494536
Cd       0.505638792   0.510451778   0.011757236
S        0.274456085   0.242062183   0.749945703
S        0.240793366   0.756159275   0.252342085
S        0.753585545   0.275313381   0.266071751
S        0.744285624   0.742434465   0.749722953
  new positions in cart coord (alat unit)
Cd      -0.017965457   0.019771021   0.000240934
Cd       0.021993810   0.490385968   0.511071669
Cd       0.503853868  -0.007308174   0.470267916
Cd       0.487982866   0.492757781   0.014692990
S        0.267184069   0.236289843   0.724118689
S        0.234211536   0.729726527   0.246437242
S        0.727088111   0.267629986   0.259659440
S        0.720624987   0.719225167   0.727122322

     Ekin =     0.02817553 Ry    T =  311.3 K  Etot =  -582.40542424
     new unit-cell volume =   1189.28740 a.u.^3 (   176.23421 Ang^3 )
     density =      5.44525 g/cm^3

CELL_PARAMETERS (alat= 11.00009582)
   0.962969559   0.002018671   0.003203659
   0.002018671   0.963258102   0.003423512
   0.003203659   0.003423512   0.963284035

ATOMIC_POSITIONS (angstrom)
Cd           -0.1045769248        0.1150871118        0.0014024794
Cd            0.1280259675        2.8545367223        2.9749481834
Cd            2.9329333639       -0.0425408793        2.7374295408
Cd            2.8405482612        2.8683430415        0.0855278927
S             1.5552784684        1.3754431769        4.2150948905
S             1.3633453529        4.2477381110        1.4345111865
S             4.2323798936        1.5578741511        1.5114775979
S             4.1947580476        4.1866096969        4.2325790376



     Writing output data file ./outdir_1bar_/pwscf.save/
     NEW-OLD atomic charge density approx. for the potential
     extrapolated charge   71.94372, renormalised to   72.00000

     total cpu time spent up to now is    84398.6 secs

     Self-consistent Calculation

     iteration #  1     ecut=    70.00 Ry     beta= 0.70
     Davidson diagonalization with overlap
     ethr =  1.00E-06,  avg # of iterations =  3.0

     total cpu time spent up to now is    84530.8 secs

     total energy              =    -582.83750742 Ry
     Harris-Foulkes estimate   =    -582.97150006 Ry
     estimated scf accuracy    <       0.00022833 Ry

     iteration #  2     ecut=    70.00 Ry     beta= 0.70
     Davidson diagonalization with overlap
     ethr =  3.17E-07,  avg # of iterations =  3.1

     total cpu time spent up to now is    84660.5 secs

     total energy              =    -582.83779234 Ry
     Harris-Foulkes estimate   =    -582.83814396 Ry
     estimated scf accuracy    <       0.00091187 Ry

     iteration #  3     ecut=    70.00 Ry     beta= 0.70
     Davidson diagonalization with overlap
     ethr =  3.17E-07,  avg # of iterations =  2.7

     total cpu time spent up to now is    84762.5 secs

     total energy              =    -582.83785052 Ry
     Harris-Foulkes estimate   =    -582.83787665 Ry
     estimated scf accuracy    <       0.00011266 Ry

     iteration #  4     ecut=    70.00 Ry     beta= 0.70
     Davidson diagonalization with overlap
     ethr =  1.56E-07,  avg # of iterations =  1.0

     total cpu time spent up to now is    84832.0 secs

     total energy              =    -582.83783843 Ry
     Harris-Foulkes estimate   =    -582.83785387 Ry
     estimated scf accuracy    <       0.00004925 Ry

     iteration #  5     ecut=    70.00 Ry     beta= 0.70
     Davidson diagonalization with overlap
     ethr =  6.84E-08,  avg # of iterations =  2.0

     total cpu time spent up to now is    84915.5 secs

     total energy              =    -582.83783749 Ry
     Harris-Foulkes estimate   =    -582.83784280 Ry
     estimated scf accuracy    <       0.00000904 Ry

     iteration #  6     ecut=    70.00 Ry     beta= 0.70
     Davidson diagonalization with overlap
     ethr =  1.26E-08,  avg # of iterations =  2.2

     total cpu time spent up to now is    85011.7 secs

     End of self-consistent calculation

     Number of k-points >= 100: set verbosity='high' to print the bands.

     the Fermi energy is     7.7316 ev

!    total energy              =    -582.83784005 Ry
     Harris-Foulkes estimate   =    -582.83784018 Ry
     estimated scf accuracy    <       0.00000016 Ry

     convergence has been achieved in   6 iterations

     Forces acting on atoms (cartesian axes, Ry/au):

     atom    1 type  1   force =     0.01133629   -0.00784059   -0.00698942
     atom    2 type  1   force =     0.00807836   -0.01303519   -0.01045675
     atom    3 type  1   force =    -0.02143616    0.00463489   -0.00818746
     atom    4 type  1   force =    -0.02974424   -0.01031147   -0.00032518
     atom    5 type  2   force =    -0.00471802   -0.00706545    0.01740777
     atom    6 type  2   force =    -0.00391740    0.01473306   -0.01180715
     atom    7 type  2   force =     0.01865633   -0.00640195    0.00296658
     atom    8 type  2   force =     0.02174485    0.02528669    0.01739161

     Total force =     0.068426     Total SCF correction =     0.000183


     Computing stress (Cartesian axis) and pressure

          total   stress  (Ry/bohr**3)                   (kbar)     P=       92.52
   0.00062357  -0.00007113  -0.00006631           91.73      -10.46       -9.75
  -0.00007113   0.00062796  -0.00010853          -10.46       92.38      -15.97
  -0.00006631  -0.00010853   0.00063538           -9.75      -15.97       93.47


     Entering Dynamics;  it =   120   time =  0.05953 pico-seconds

  new lattice vectors (alat unit) :
   0.962722128   0.001954043   0.003165942
   0.001954043   0.963021322   0.003356314
   0.003165942   0.003356314   0.963039191
  new unit-cell volume =   1188.3886 (a.u.)^3
  new positions in cryst coord
Cd      -0.018769697   0.020787886   0.000300528
Cd       0.020286417   0.507101090   0.528731902
Cd       0.521547712  -0.010454938   0.486239898
Cd       0.505510676   0.510319578   0.011866734
S        0.274696729   0.241725675   0.750076543
S        0.240334857   0.756430214   0.252459159
S        0.753802549   0.275447559   0.265809523
S        0.744334221   0.742444744   0.749857355
  new positions in cart coord (alat unit)
Cd      -0.018028431   0.019983509   0.000299767
Cd       0.022195014   0.490163393   0.510955759
Cd       0.503624501  -0.007417228   0.469884178
Cd       0.487701069   0.492476253   0.014741340
S        0.267303660   0.235841241   0.724034088
S        0.233653053   0.729775382   0.246427768
S        0.727082168   0.267626975   0.259295972
S        0.720411799   0.718961337   0.726990417

     Ekin =     0.02817690 Ry    T =  311.4 K  Etot =  -582.40543251
     new unit-cell volume =   1188.38862 a.u.^3 (   176.10102 Ang^3 )
     density =      5.44936 g/cm^3

CELL_PARAMETERS (alat= 11.00009582)
   0.962722128   0.001954043   0.003165942
   0.001954043   0.963021322   0.003356314
   0.003165942   0.003356314   0.963039191

ATOMIC_POSITIONS (angstrom)
Cd           -0.1049434957        0.1163240059        0.0017449457
Cd            0.1291971787        2.8532411085        2.9742734740
Cd            2.9315982192       -0.0431756851        2.7351957994
Cd            2.8389079243        2.8667042668        0.0858093395
S             1.5559746069        1.3728318658        4.2146024274
S             1.3600944207        4.2480224977        1.4344560353
S             4.2323452999        1.5578566236        1.5093618513
S             4.1935170824        4.1850739416        4.2318112168



     Writing output data file ./outdir_1bar_/pwscf.save/
     NEW-OLD atomic charge density approx. for the potential
     extrapolated charge   71.94556, renormalised to   72.00000

     total cpu time spent up to now is    85068.9 secs

     Self-consistent Calculation

     iteration #  1     ecut=    70.00 Ry     beta= 0.70
     Davidson diagonalization with overlap
     ethr =  1.00E-06,  avg # of iterations =  3.0

     total cpu time spent up to now is    85203.3 secs

     total energy              =    -582.83723728 Ry
     Harris-Foulkes estimate   =    -582.96674522 Ry
     estimated scf accuracy    <       0.00021016 Ry

     iteration #  2     ecut=    70.00 Ry     beta= 0.70
     Davidson diagonalization with overlap
     ethr =  2.92E-07,  avg # of iterations =  3.0

     total cpu time spent up to now is    85329.7 secs

     total energy              =    -582.83750208 Ry
     Harris-Foulkes estimate   =    -582.83782753 Ry
     estimated scf accuracy    <       0.00084612 Ry

     iteration #  3     ecut=    70.00 Ry     beta= 0.70
     Davidson diagonalization with overlap
     ethr =  2.92E-07,  avg # of iterations =  2.8

     total cpu time spent up to now is    85428.4 secs

     total energy              =    -582.83755516 Ry
     Harris-Foulkes estimate   =    -582.83757988 Ry
     estimated scf accuracy    <       0.00010566 Ry

     iteration #  4     ecut=    70.00 Ry     beta= 0.70
     Davidson diagonalization with overlap
     ethr =  1.47E-07,  avg # of iterations =  1.0

     total cpu time spent up to now is    85497.0 secs

     total energy              =    -582.83754359 Ry
     Harris-Foulkes estimate   =    -582.83755833 Ry
     estimated scf accuracy    <       0.00004579 Ry

     iteration #  5     ecut=    70.00 Ry     beta= 0.70
     Davidson diagonalization with overlap
     ethr =  6.36E-08,  avg # of iterations =  2.0

     total cpu time spent up to now is    85579.3 secs

     total energy              =    -582.83754323 Ry
     Harris-Foulkes estimate   =    -582.83754788 Ry
     estimated scf accuracy    <       0.00000778 Ry

     iteration #  6     ecut=    70.00 Ry     beta= 0.70
     Davidson diagonalization with overlap
     ethr =  1.08E-08,  avg # of iterations =  2.4

     total cpu time spent up to now is    85675.5 secs

     End of self-consistent calculation

     Number of k-points >= 100: set verbosity='high' to print the bands.

     the Fermi energy is     7.7412 ev

!    total energy              =    -582.83754549 Ry
     Harris-Foulkes estimate   =    -582.83754565 Ry
     estimated scf accuracy    <       0.00000019 Ry

     convergence has been achieved in   6 iterations

     Forces acting on atoms (cartesian axes, Ry/au):

     atom    1 type  1   force =     0.01133670   -0.00818412   -0.00748360
     atom    2 type  1   force =     0.00782384   -0.01321795   -0.00980393
     atom    3 type  1   force =    -0.02062360    0.00459844   -0.00808134
     atom    4 type  1   force =    -0.03006659   -0.00953385   -0.00027956
     atom    5 type  2   force =    -0.00501781   -0.00661477    0.01710936
     atom    6 type  2   force =    -0.00317162    0.01418271   -0.01240551
     atom    7 type  2   force =     0.01820531   -0.00643119    0.00398680
     atom    8 type  2   force =     0.02151378    0.02520073    0.01695779

     Total force =     0.067759     Total SCF correction =     0.000198


     Computing stress (Cartesian axis) and pressure

          total   stress  (Ry/bohr**3)                   (kbar)     P=       93.32
   0.00062885  -0.00007007  -0.00006559           92.51      -10.31       -9.65
  -0.00007007   0.00063311  -0.00010745          -10.31       93.13      -15.81
  -0.00006559  -0.00010745   0.00064116           -9.65      -15.81       94.32


     Entering Dynamics;  it =   121   time =  0.06003 pico-seconds

  new lattice vectors (alat unit) :
   0.962483048   0.001887343   0.003126412
   0.001887343   0.962792865   0.003286156
   0.003126412   0.003286156   0.962802850
  new unit-cell volume =   1187.5214 (a.u.)^3
  new positions in cryst coord
Cd      -0.018838062   0.021011580   0.000361148
Cd       0.020556200   0.507030892   0.528780558
Cd       0.521460722  -0.010500337   0.485984330
Cd       0.505379527   0.510186380   0.011976243
S        0.274935712   0.241386757   0.750213338
S        0.239875072   0.756706150   0.252571998
S        0.754025945   0.275579558   0.265548563
S        0.744390247   0.742463716   0.749997627
  new positions in cart coord (alat unit)
Cd      -0.018090531   0.020195433   0.000357866
Cd       0.022395121   0.489942177   0.510841878
Cd       0.503396675  -0.007528454   0.469502894
Cd       0.487419566   0.492196987   0.014787337
S        0.267422017   0.235389664   0.723960336
S        0.233093498   0.729834000   0.246413642
S        0.727087517   0.267621772   0.258933906
S        0.720209078   0.718708298   0.726866974

     Ekin =     0.02817858 Ry    T =  311.6 K  Etot =  -582.40544177
     new unit-cell volume =   1187.52137 a.u.^3 (   175.97251 Ang^3 )
     density =      5.45334 g/cm^3

CELL_PARAMETERS (alat= 11.00009582)
   0.962483048   0.001887343   0.003126412
   0.001887343   0.962792865   0.003286156
   0.003126412   0.003286156   0.962802850

ATOMIC_POSITIONS (angstrom)
Cd           -0.1053049782        0.1175576131        0.0020831378
Cd            0.1303619992        2.8519534127        2.9736105721
Cd            2.9302720427       -0.0438231297        2.7329763437
Cd            2.8372692959        2.8650786594        0.0860770868
S             1.5566635631        1.3702032314        4.2141731178
S             1.3568372541        4.2483637158        1.4343738115
S             4.2323764336        1.5578263345        1.5072542680
S             4.1923370449        4.1836009998        4.2310926567



     Writing output data file ./outdir_1bar_/pwscf.save/
     NEW-OLD atomic charge density approx. for the potential
     extrapolated charge   71.94743, renormalised to   72.00000

     total cpu time spent up to now is    85730.9 secs

     Self-consistent Calculation

     iteration #  1     ecut=    70.00 Ry     beta= 0.70
     Davidson diagonalization with overlap
     ethr =  1.00E-06,  avg # of iterations =  3.0

     total cpu time spent up to now is    85868.4 secs

     total energy              =    -582.83697788 Ry
     Harris-Foulkes estimate   =    -582.96193072 Ry
     estimated scf accuracy    <       0.00019324 Ry

     iteration #  2     ecut=    70.00 Ry     beta= 0.70
     Davidson diagonalization with overlap
     ethr =  2.68E-07,  avg # of iterations =  3.0

     total cpu time spent up to now is    85996.1 secs

     total energy              =    -582.83722336 Ry
     Harris-Foulkes estimate   =    -582.83752400 Ry
     estimated scf accuracy    <       0.00078330 Ry

     iteration #  3     ecut=    70.00 Ry     beta= 0.70
     Davidson diagonalization with overlap
     ethr =  2.68E-07,  avg # of iterations =  2.8

     total cpu time spent up to now is    86098.5 secs

     total energy              =    -582.83727173 Ry
     Harris-Foulkes estimate   =    -582.83729504 Ry
     estimated scf accuracy    <       0.00009871 Ry

     iteration #  4     ecut=    70.00 Ry     beta= 0.70
     Davidson diagonalization with overlap
     ethr =  1.37E-07,  avg # of iterations =  1.0

     total cpu time spent up to now is    86168.1 secs

     total energy              =    -582.83726069 Ry
     Harris-Foulkes estimate   =    -582.83727473 Ry
     estimated scf accuracy    <       0.00004234 Ry

     iteration #  5     ecut=    70.00 Ry     beta= 0.70
     Davidson diagonalization with overlap
     ethr =  5.88E-08,  avg # of iterations =  2.0

     total cpu time spent up to now is    86254.1 secs

     total energy              =    -582.83726092 Ry
     Harris-Foulkes estimate   =    -582.83726492 Ry
     estimated scf accuracy    <       0.00000657 Ry

     iteration #  6     ecut=    70.00 Ry     beta= 0.70
     Davidson diagonalization with overlap
     ethr =  9.12E-09,  avg # of iterations =  2.7

     total cpu time spent up to now is    86354.1 secs

     End of self-consistent calculation

     Number of k-points >= 100: set verbosity='high' to print the bands.

     the Fermi energy is     7.7504 ev

!    total energy              =    -582.83726288 Ry
     Harris-Foulkes estimate   =    -582.83726306 Ry
     estimated scf accuracy    <       0.00000022 Ry

     convergence has been achieved in   6 iterations

     Forces acting on atoms (cartesian axes, Ry/au):

     atom    1 type  1   force =     0.01133392   -0.00853197   -0.00798104
     atom    2 type  1   force =     0.00756506   -0.01338885   -0.00914589
     atom    3 type  1   force =    -0.01979735    0.00455198   -0.00795934
     atom    4 type  1   force =    -0.03036180   -0.00874349   -0.00023721
     atom    5 type  2   force =    -0.00531300   -0.00615580    0.01679532
     atom    6 type  2   force =    -0.00242552    0.01362036   -0.01298769
     atom    7 type  2   force =     0.01773375   -0.00644550    0.00500414
     atom    8 type  2   force =     0.02126494    0.02509326    0.01651170

     Total force =     0.067107     Total SCF correction =     0.000213


     Computing stress (Cartesian axis) and pressure

