
     Program PWSCF v.5.1 starts on 17May2020 at 11:44:22 

     This program is part of the open-source Quantum ESPRESSO suite
     for quantum simulation of materials; please cite
         "P. Giannozzi et al., J. Phys.:Condens. Matter 21 395502 (2009);
          URL http://www.quantum-espresso.org", 
     in publications or presentations arising from this work. More details at
     http://www.quantum-espresso.org/quote

     Parallel version (MPI), running on     2 processors
     R & G space division:  proc/nbgrp/npool/nimage =       2
     Waiting for input...
     Reading input from standard input
     Message from routine read_cards :
     DEPRECATED: no units specified in ATOMIC_POSITIONS card
     Message from routine read_cards :
     ATOMIC_POSITIONS: units set to alat

     Current dimensions of program PWSCF are:
     Max number of different atomic species (ntypx) = 10
     Max number of k-points (npk) =  40000
     Max angular momentum in pseudopotentials (lmaxx) =  3

     Subspace diagonalization in iterative solution of the eigenvalue problem:
     a serial algorithm will be used


     Parallelization info
     --------------------
     sticks:   dense  smooth     PW     G-vecs:    dense   smooth      PW
     Min         198     198     63                 2604     2604     482
     Max         199     199     64                 2605     2605     483
     Sum         397     397    127                 5209     5209     965



     bravais-lattice index     =            2
     lattice parameter (alat)  =       7.6377  a.u.
     unit-cell volume          =     111.3837 (a.u.)^3
     number of atoms/cell      =            1
     number of atomic types    =            1
     number of electrons       =         3.00
     number of Kohn-Sham states=            6
     kinetic-energy cutoff     =      50.0000  Ry
     charge density cutoff     =     200.0000  Ry
     convergence threshold     =      1.0E-07
     mixing beta               =       0.7000
     number of iterations used =            8  plain     mixing
     Exchange-correlation      = SLA-PW-PBX-PBC ( 1  4  3  4 0)

     celldm(1)=   7.637663  celldm(2)=   0.000000  celldm(3)=   0.000000
     celldm(4)=   0.000000  celldm(5)=   0.000000  celldm(6)=   0.000000

     crystal axes: (cart. coord. in units of alat)
               a(1) = (  -0.500000   0.000000   0.500000 )  
               a(2) = (   0.000000   0.500000   0.500000 )  
               a(3) = (  -0.500000   0.500000   0.000000 )  

     reciprocal axes: (cart. coord. in units 2 pi/alat)
               b(1) = ( -1.000000 -1.000000  1.000000 )  
               b(2) = (  1.000000  1.000000  1.000000 )  
               b(3) = ( -1.000000  1.000000 -1.000000 )  


     PseudoPot. # 1 for Al read from file:
     ./Al.UPF
     MD5 check sum: 35dc628c1db15067e5ee3d0771eea4f3
     Pseudo is Norm-conserving, Zval =  3.0
     Generated in analytical, separable form
     Using radial grid of 1135 points,  3 beta functions with: 
                l(1) =   0
                l(2) =   0
                l(3) =   1

     atomic species   valence    mass     pseudopotential
        Al             3.00    26.98154     Al( 1.00)

     48 Sym. Ops., with inversion, found



   Cartesian axes

     site n.     atom                  positions (alat units)
         1           Al  tau(   1) = (   0.0000000   0.0000000   0.0000000  )

     number of k points=   286  gaussian smearing, width (Ry)=  0.0003

     Number of k-points >= 100: set verbosity='high' to print them.

     Dense  grid:     5209 G-vectors     FFT dimensions: (  25,  25,  25)

     Largest allocated arrays     est. size (Mb)     dimensions
        Kohn-Sham Wavefunctions         0.03 Mb     (     345,    6)
        NL pseudopotentials             0.03 Mb     (     345,    5)
        Each V/rho on FFT grid          0.12 Mb     (    8125)
        Each G-vector array             0.02 Mb     (    2604)
        G-vector shells                 0.00 Mb     (     100)
     Largest temporary arrays     est. size (Mb)     dimensions
        Auxiliary wavefunctions         0.13 Mb     (     345,   24)
        Each subspace H/S matrix        0.01 Mb     (      24,   24)
        Each <psi_i|beta_j> matrix      0.00 Mb     (       5,    6)
        Arrays for rho mixing           0.99 Mb     (    8125,    8)

     Initial potential from superposition of free atoms

     starting charge    2.99771, renormalised to    3.00000
     Starting wfc are    4 randomized atomic wfcs +    2 random wfc

     total cpu time spent up to now is        3.9 secs

     per-process dynamical memory:    14.3 Mb

     Self-consistent Calculation

     iteration #  1     ecut=    50.00 Ry     beta=0.70
     Davidson diagonalization with overlap
     ethr =  1.00E-02,  avg # of iterations =  4.7

     Threshold (ethr) on eigenvalues was too large:
     Diagonalizing with lowered threshold

     Davidson diagonalization with overlap
     ethr =  1.91E-04,  avg # of iterations =  1.7

     total cpu time spent up to now is       47.3 secs

     total energy              =      -4.14813872 Ry
     Harris-Foulkes estimate   =      -4.14887647 Ry
     estimated scf accuracy    <       0.00579788 Ry

     iteration #  2     ecut=    50.00 Ry     beta=0.70
     Davidson diagonalization with overlap
     ethr =  1.93E-04,  avg # of iterations =  1.0

     total cpu time spent up to now is       55.0 secs

     total energy              =      -4.14811826 Ry
     Harris-Foulkes estimate   =      -4.14816933 Ry
     estimated scf accuracy    <       0.00046172 Ry

     iteration #  3     ecut=    50.00 Ry     beta=0.70
     Davidson diagonalization with overlap
     ethr =  1.54E-05,  avg # of iterations =  1.5

     total cpu time spent up to now is       73.0 secs

     total energy              =      -4.14812398 Ry
     Harris-Foulkes estimate   =      -4.14812369 Ry
     estimated scf accuracy    <       0.00000035 Ry

     iteration #  4     ecut=    50.00 Ry     beta=0.70
     Davidson diagonalization with overlap
     ethr =  1.17E-08,  avg # of iterations =  2.8

     total cpu time spent up to now is       88.5 secs

     End of self-consistent calculation

     Number of k-points >= 100: set verbosity='high' to print the bands.

     the Fermi energy is     7.9635 ev

!    total energy              =      -4.14812425 Ry
     Harris-Foulkes estimate   =      -4.14812425 Ry
     estimated scf accuracy    <          4.8E-09 Ry

     The total energy is the sum of the following terms:

     one-electron contribution =       2.85437110 Ry
     hartree contribution      =       0.00861439 Ry
     xc contribution           =      -1.60844118 Ry
     ewald contribution        =      -5.40266820 Ry
     smearing contrib. (-TS)   =      -0.00000035 Ry

     convergence has been achieved in   4 iterations

     Writing output data file Al.save

     init_run     :      1.37s CPU      3.43s WALL (       1 calls)
     electrons    :     31.19s CPU     84.79s WALL (       1 calls)

     Called by init_run:
     wfcinit      :      1.24s CPU      3.17s WALL (       1 calls)
     potinit      :      0.02s CPU      0.03s WALL (       1 calls)

     Called by electrons:
     c_bands      :     26.92s CPU     73.53s WALL (       5 calls)
     sum_band     :      4.11s CPU     10.82s WALL (       5 calls)
     v_of_rho     :      0.10s CPU      0.26s WALL (       5 calls)
     mix_rho      :      0.00s CPU      0.01s WALL (       5 calls)

     Called by c_bands:
     init_us_2    :      0.39s CPU      1.10s WALL (    3146 calls)
     cegterg      :     25.75s CPU     70.07s WALL (    1430 calls)

     Called by *egterg:
     h_psi        :     20.95s CPU     56.85s WALL (    5066 calls)
     g_psi        :      0.04s CPU      0.15s WALL (    3350 calls)
     cdiaghg      :      1.99s CPU      5.17s WALL (    4494 calls)

     Called by h_psi:
     add_vuspsi   :      0.16s CPU      0.50s WALL (    5066 calls)

     General routines
     calbec       :      0.85s CPU      2.45s WALL (    5066 calls)
     fft          :      0.06s CPU      0.16s WALL (      56 calls)
     fftw         :     22.62s CPU     61.11s WALL (   56550 calls)
     davcio       :      0.00s CPU      0.01s WALL (     286 calls)

     Parallel routines
     fft_scatter  :     17.77s CPU     48.76s WALL (   56606 calls)

     PWSCF        :  0m33.48s CPU     1m31.27s WALL


   This run was terminated on:  11:45:53  17May2020            

=------------------------------------------------------------------------------=
   JOB DONE.
=------------------------------------------------------------------------------=
