
     Program PWSCF v.6.0 (svn rev. 13079) starts on  6Mar2020 at 15:37: 6 

     This program is part of the open-source Quantum ESPRESSO suite
     for quantum simulation of materials; please cite
         "P. Giannozzi et al., J. Phys.:Condens. Matter 21 395502 (2009);
          URL http://www.quantum-espresso.org", 
     in publications or presentations arising from this work. More details at
     http://www.quantum-espresso.org/quote

     Parallel version (MPI), running on     1 processors
     Waiting for input...
     Reading input from standard input
     Message from routine read_cards :
     DEPRECATED: no units specified in ATOMIC_POSITIONS card
     Message from routine read_cards :
     ATOMIC_POSITIONS: units set to alat

     Current dimensions of program PWSCF are:
     Max number of different atomic species (ntypx) = 10
     Max number of k-points (npk) =  40000
     Max angular momentum in pseudopotentials (lmaxx) =  3

     Subspace diagonalization in iterative solution of the eigenvalue problem:
     a serial algorithm will be used


     G-vector sticks info
     --------------------
     sticks:   dense  smooth     PW     G-vecs:    dense   smooth      PW
     Sum         433     433    151                 5985     5985    1139



     bravais-lattice index     =            2
     lattice parameter (alat)  =      10.2633  a.u.
     unit-cell volume          =     270.2713 (a.u.)^3
     number of atoms/cell      =            2
     number of atomic types    =            1
     number of electrons       =         8.00
     number of Kohn-Sham states=            4
     kinetic-energy cutoff     =      30.0000  Ry
     charge density cutoff     =     120.0000  Ry
     convergence threshold     =      1.0E-07
     mixing beta               =       0.7000
     number of iterations used =            8  plain     mixing
     Exchange-correlation      =  SLA  PZ   NOGX NOGC ( 1  1  0  0 0 0)

     celldm(1)=  10.263291  celldm(2)=   0.000000  celldm(3)=   0.000000
     celldm(4)=   0.000000  celldm(5)=   0.000000  celldm(6)=   0.000000

     crystal axes: (cart. coord. in units of alat)
               a(1) = (  -0.500000   0.000000   0.500000 )  
               a(2) = (   0.000000   0.500000   0.500000 )  
               a(3) = (  -0.500000   0.500000   0.000000 )  

     reciprocal axes: (cart. coord. in units 2 pi/alat)
               b(1) = ( -1.000000 -1.000000  1.000000 )  
               b(2) = (  1.000000  1.000000  1.000000 )  
               b(3) = ( -1.000000  1.000000 -1.000000 )  


     PseudoPot. # 1 for Si read from file:
     ./Si.pz-vbc.UPF
     MD5 check sum: 6dfa03ddd5817404712e03e4d12deb78
     Pseudo is Norm-conserving, Zval =  4.0
     Generated by new atomic code, or converted to UPF format
     Using radial grid of  431 points,  2 beta functions with: 
                l(1) =   0
                l(2) =   1

     atomic species   valence    mass     pseudopotential
        Si             4.00    28.08550     Si( 1.00)

     24 Sym. Ops. (no inversion) found
          (note: 24 additional sym.ops. were found but ignored
           their fractional translations are incommensurate with FFT grid)


   Cartesian axes

     site n.     atom                  positions (alat units)
         1           Si  tau(   1) = (   0.0000000   0.0000000   0.0000000  )
         2           Si  tau(   2) = (   0.2500000   0.2500000   0.2500000  )

     number of k points=    29
                       cart. coord. in units 2pi/alat
        k(    1) = (   0.0000000   0.0000000   0.0000000), wk =   0.0039062
        k(    2) = (  -0.1250000   0.1250000  -0.1250000), wk =   0.0312500
        k(    3) = (  -0.2500000   0.2500000  -0.2500000), wk =   0.0312500
        k(    4) = (  -0.3750000   0.3750000  -0.3750000), wk =   0.0312500
        k(    5) = (   0.5000000  -0.5000000   0.5000000), wk =   0.0156250
        k(    6) = (   0.0000000   0.2500000   0.0000000), wk =   0.0234375
        k(    7) = (  -0.1250000   0.3750000  -0.1250000), wk =   0.0937500
        k(    8) = (  -0.2500000   0.5000000  -0.2500000), wk =   0.0937500
        k(    9) = (   0.6250000  -0.3750000   0.6250000), wk =   0.0937500
        k(   10) = (   0.5000000  -0.2500000   0.5000000), wk =   0.0937500
        k(   11) = (   0.3750000  -0.1250000   0.3750000), wk =   0.0937500
        k(   12) = (   0.2500000   0.0000000   0.2500000), wk =   0.0468750
        k(   13) = (   0.0000000   0.5000000   0.0000000), wk =   0.0234375
        k(   14) = (  -0.1250000   0.6250000  -0.1250000), wk =   0.0937500
        k(   15) = (   0.7500000  -0.2500000   0.7500000), wk =   0.0937500
        k(   16) = (   0.6250000  -0.1250000   0.6250000), wk =   0.0937500
        k(   17) = (   0.5000000   0.0000000   0.5000000), wk =   0.0468750
        k(   18) = (   0.0000000   0.7500000   0.0000000), wk =   0.0234375
        k(   19) = (   0.8750000  -0.1250000   0.8750000), wk =   0.0937500
        k(   20) = (   0.7500000   0.0000000   0.7500000), wk =   0.0468750
        k(   21) = (   0.0000000  -1.0000000   0.0000000), wk =   0.0117188
        k(   22) = (  -0.2500000   0.5000000   0.0000000), wk =   0.0937500
        k(   23) = (   0.6250000  -0.3750000   0.8750000), wk =   0.1875000
        k(   24) = (   0.5000000  -0.2500000   0.7500000), wk =   0.0937500
        k(   25) = (   0.7500000  -0.2500000   1.0000000), wk =   0.0937500
        k(   26) = (   0.6250000  -0.1250000   0.8750000), wk =   0.1875000
        k(   27) = (   0.5000000   0.0000000   0.7500000), wk =   0.0937500
        k(   28) = (  -0.2500000  -1.0000000   0.0000000), wk =   0.0468750
        k(   29) = (  -0.5000000  -1.0000000   0.0000000), wk =   0.0234375

     Dense  grid:     5985 G-vectors     FFT dimensions: (  25,  25,  25)

     Estimated max dynamical RAM per process >       5.13Mb

     Initial potential from superposition of free atoms

     starting charge    7.99901, renormalised to    8.00000
     Starting wfc are    8 randomized atomic wfcs

     total cpu time spent up to now is        0.2 secs

     per-process dynamical memory:     7.9 Mb

     Self-consistent Calculation

     iteration #  1     ecut=    30.00 Ry     beta=0.70
     Davidson diagonalization with overlap
     ethr =  1.00E-02,  avg # of iterations =  2.0

     Threshold (ethr) on eigenvalues was too large:
     Diagonalizing with lowered threshold

     Davidson diagonalization with overlap
     ethr =  7.69E-04,  avg # of iterations =  1.0

     total cpu time spent up to now is        0.6 secs

     total energy              =     -15.84854967 Ry
     Harris-Foulkes estimate   =     -15.86861909 Ry
     estimated scf accuracy    <       0.06006553 Ry

     iteration #  2     ecut=    30.00 Ry     beta=0.70
     Davidson diagonalization with overlap
     ethr =  7.51E-04,  avg # of iterations =  1.0

     total cpu time spent up to now is        0.8 secs

     total energy              =     -15.85144520 Ry
     Harris-Foulkes estimate   =     -15.85174683 Ry
     estimated scf accuracy    <       0.00215674 Ry

     iteration #  3     ecut=    30.00 Ry     beta=0.70
     Davidson diagonalization with overlap
     ethr =  2.70E-05,  avg # of iterations =  2.4

     total cpu time spent up to now is        1.0 secs

     total energy              =     -15.85186181 Ry
     Harris-Foulkes estimate   =     -15.85189296 Ry
     estimated scf accuracy    <       0.00007081 Ry

     iteration #  4     ecut=    30.00 Ry     beta=0.70
     Davidson diagonalization with overlap
     ethr =  8.85E-07,  avg # of iterations =  2.1

     total cpu time spent up to now is        1.2 secs

     total energy              =     -15.85187933 Ry
     Harris-Foulkes estimate   =     -15.85188299 Ry
     estimated scf accuracy    <       0.00000783 Ry

     iteration #  5     ecut=    30.00 Ry     beta=0.70
     Davidson diagonalization with overlap
     ethr =  9.78E-08,  avg # of iterations =  2.0

     total cpu time spent up to now is        1.4 secs

     total energy              =     -15.85188057 Ry
     Harris-Foulkes estimate   =     -15.85188062 Ry
     estimated scf accuracy    <       0.00000010 Ry

     iteration #  6     ecut=    30.00 Ry     beta=0.70
     Davidson diagonalization with overlap
     ethr =  1.28E-09,  avg # of iterations =  2.5

     total cpu time spent up to now is        1.6 secs

     End of self-consistent calculation

          k = 0.0000 0.0000 0.0000 (   749 PWs)   bands (ev):

    -5.8866   6.0373   6.0373   6.0373

          k =-0.1250 0.1250-0.1250 (   743 PWs)   bands (ev):

    -5.6824   4.4429   5.7489   5.7489

          k =-0.2500 0.2500-0.2500 (   754 PWs)   bands (ev):

    -5.0862   2.1187   5.2786   5.2786

          k =-0.3750 0.3750-0.3750 (   763 PWs)   bands (ev):

    -4.1886   0.0960   4.9514   4.9514

          k = 0.5000-0.5000 0.5000 (   754 PWs)   bands (ev):

    -3.5425  -0.9343   4.8394   4.8394

          k = 0.0000 0.2500 0.0000 (   745 PWs)   bands (ev):

    -5.6137   4.7122   5.2312   5.2312

          k =-0.1250 0.3750-0.1250 (   757 PWs)   bands (ev):

    -5.1447   2.8264   4.7192   4.7946

          k =-0.2500 0.5000-0.2500 (   746 PWs)   bands (ev):

    -4.3276   0.7648   4.2021   4.4509

          k = 0.6250-0.3750 0.6250 (   753 PWs)   bands (ev):

    -3.4582  -0.7065   3.7556   4.4754

          k = 0.5000-0.2500 0.5000 (   750 PWs)   bands (ev):

    -3.7060  -0.3327   3.5728   4.7725

          k = 0.3750-0.1250 0.3750 (   748 PWs)   bands (ev):

    -4.6349   1.4254   3.7222   5.2646

          k = 0.2500 0.0000 0.2500 (   753 PWs)   bands (ev):

    -5.3461   3.3660   4.4041   5.7453

          k = 0.0000 0.5000 0.0000 (   729 PWs)   bands (ev):

    -4.8045   2.5461   4.1471   4.1471

          k =-0.1250 0.6250-0.1250 (   751 PWs)   bands (ev):

    -4.0936   1.1257   3.3598   3.8281

          k = 0.7500-0.2500 0.7500 (   748 PWs)   bands (ev):

    -3.1628  -0.3205   2.4915   3.8312

          k = 0.6250-0.1250 0.6250 (   744 PWs)   bands (ev):

    -2.9548  -0.5821   2.0293   4.1506

          k = 0.5000 0.0000 0.5000 (   754 PWs)   bands (ev):

    -3.8392   0.5836   2.2676   4.7103

          k = 0.0000 0.7500 0.0000 (   753 PWs)   bands (ev):

    -3.4916   0.3275   3.4284   3.4284

          k = 0.8750-0.1250 0.8750 (   747 PWs)   bands (ev):

    -2.5926  -0.7546   2.5883   3.3520

          k = 0.7500 0.0000 0.7500 (   740 PWs)   bands (ev):

    -2.1463  -1.1544   1.7112   3.6105

          k = 0.0000-1.0000 0.0000 (   740 PWs)   bands (ev):

    -1.7414  -1.7414   3.1819   3.1819

          k =-0.2500 0.5000 0.0000 (   755 PWs)   bands (ev):

    -4.5562   1.7715   3.3149   4.6096

          k = 0.6250-0.3750 0.8750 (   747 PWs)   bands (ev):

    -3.6647   0.2176   2.7072   4.1050

          k = 0.5000-0.2500 0.7500 (   750 PWs)   bands (ev):

    -3.0055  -0.7353   2.5800   3.8737

          k = 0.7500-0.2500 1.0000 (   755 PWs)   bands (ev):

    -3.2911   0.1095   2.6625   3.2697

          k = 0.6250-0.1250 0.8750 (   748 PWs)   bands (ev):

    -2.4110  -0.8588   1.9568   3.0669

          k = 0.5000 0.0000 0.7500 (   747 PWs)   bands (ev):

    -2.7619  -0.4968   1.7878   3.4456

          k =-0.2500-1.0000 0.0000 (   742 PWs)   bands (ev):

    -1.6607  -1.6607   2.6074   2.6074

          k =-0.5000-1.0000 0.0000 (   744 PWs)   bands (ev):

    -1.5715  -1.5715   2.1644   2.1644

     highest occupied level (ev):     6.0373

!    total energy              =     -15.85188061 Ry
     Harris-Foulkes estimate   =     -15.85188061 Ry
     estimated scf accuracy    <          1.7E-09 Ry

     The total energy is the sum of the following terms:

     one-electron contribution =       4.64630363 Ry
     hartree contribution      =       1.09456619 Ry
     xc contribution           =      -4.79720786 Ry
     ewald contribution        =     -16.79554257 Ry

     convergence has been achieved in   6 iterations

     Writing output data file silicon.save

     init_run     :      0.17s CPU      0.20s WALL (       1 calls)
     electrons    :      1.33s CPU      1.42s WALL (       1 calls)

     Called by init_run:
     wfcinit      :      0.12s CPU      0.15s WALL (       1 calls)
     potinit      :      0.00s CPU      0.00s WALL (       1 calls)

     Called by electrons:
     c_bands      :      1.11s CPU      1.17s WALL (       7 calls)
     sum_band     :      0.20s CPU      0.21s WALL (       7 calls)
     v_of_rho     :      0.01s CPU      0.02s WALL (       7 calls)
     mix_rho      :      0.01s CPU      0.02s WALL (       7 calls)

     Called by c_bands:
     init_us_2    :      0.08s CPU      0.09s WALL (     435 calls)
     cegterg      :      1.05s CPU      1.10s WALL (     203 calls)

     Called by sum_band:

     Called by *egterg:
     h_psi        :      0.95s CPU      1.02s WALL (     611 calls)
     g_psi        :      0.01s CPU      0.01s WALL (     379 calls)
     cdiaghg      :      0.04s CPU      0.05s WALL (     553 calls)

     Called by h_psi:
     h_psi:pot    :      0.94s CPU      1.01s WALL (     611 calls)
     h_psi:calbec :      0.04s CPU      0.05s WALL (     611 calls)
     vloc_psi     :      0.87s CPU      0.93s WALL (     611 calls)
     add_vuspsi   :      0.03s CPU      0.03s WALL (     611 calls)

     General routines
     calbec       :      0.04s CPU      0.04s WALL (     611 calls)
     fft          :      0.01s CPU      0.01s WALL (      29 calls)
     fftw         :      0.86s CPU      0.91s WALL (    5652 calls)
     davcio       :      0.00s CPU      0.03s WALL (      29 calls)

     Parallel routines
     fft_scatter  :      0.09s CPU      0.10s WALL (    5681 calls)

     PWSCF        :     1.60s CPU         1.84s WALL


   This run was terminated on:  15:37: 8   6Mar2020            

=------------------------------------------------------------------------------=
   JOB DONE.
=------------------------------------------------------------------------------=
