
     Program PWSCF v.5.1 starts on 17May2020 at 12:29: 0 

     This program is part of the open-source Quantum ESPRESSO suite
     for quantum simulation of materials; please cite
         "P. Giannozzi et al., J. Phys.:Condens. Matter 21 395502 (2009);
          URL http://www.quantum-espresso.org", 
     in publications or presentations arising from this work. More details at
     http://www.quantum-espresso.org/quote

     Parallel version (MPI), running on     1 processors
     Waiting for input...
     Reading input from standard input
     Message from routine read_cards :
     DEPRECATED: no units specified in ATOMIC_POSITIONS card
     Message from routine read_cards :
     ATOMIC_POSITIONS: units set to alat

     Current dimensions of program PWSCF are:
     Max number of different atomic species (ntypx) = 10
     Max number of k-points (npk) =  40000
     Max angular momentum in pseudopotentials (lmaxx) =  3

     Atomic positions and unit cell read from directory:
     ./Al.save/


     Subspace diagonalization in iterative solution of the eigenvalue problem:
     a serial algorithm will be used


     G-vector sticks info
     --------------------
     sticks:   dense  smooth     PW     G-vecs:    dense   smooth      PW
     Sum         397     397    121                 5209     5209     941



     bravais-lattice index     =            2
     lattice parameter (alat)  =       7.6377  a.u.
     unit-cell volume          =     111.3837 (a.u.)^3
     number of atoms/cell      =            1
     number of atomic types    =            1
     number of electrons       =         3.00
     number of Kohn-Sham states=            8
     kinetic-energy cutoff     =      50.0000  Ry
     charge density cutoff     =     200.0000  Ry
     Exchange-correlation      = SLA-PW-PBX-PBC ( 1  4  3  4 0)

     celldm(1)=   7.637663  celldm(2)=   0.000000  celldm(3)=   0.000000
     celldm(4)=   0.000000  celldm(5)=   0.000000  celldm(6)=   0.000000

     crystal axes: (cart. coord. in units of alat)
               a(1) = (  -0.500000   0.000000   0.500000 )  
               a(2) = (   0.000000   0.500000   0.500000 )  
               a(3) = (  -0.500000   0.500000   0.000000 )  

     reciprocal axes: (cart. coord. in units 2 pi/alat)
               b(1) = ( -1.000000 -1.000000  1.000000 )  
               b(2) = (  1.000000  1.000000  1.000000 )  
               b(3) = ( -1.000000  1.000000 -1.000000 )  


     PseudoPot. # 1 for Al read from file:
     ./Al.UPF
     MD5 check sum: 35dc628c1db15067e5ee3d0771eea4f3
     Pseudo is Norm-conserving, Zval =  3.0
     Generated in analytical, separable form
     Using radial grid of 1135 points,  3 beta functions with: 
                l(1) =   0
                l(2) =   0
                l(3) =   1

     atomic species   valence    mass     pseudopotential
        Al             3.00    26.98154     Al( 1.00)

     48 Sym. Ops., with inversion, found



   Cartesian axes

     site n.     atom                  positions (alat units)
         1           Al  tau(   1) = (   0.0000000   0.0000000   0.0000000  )

     number of k points=   151

     Number of k-points >= 100: set verbosity='high' to print them.

     Dense  grid:     5209 G-vectors     FFT dimensions: (  25,  25,  25)

     Largest allocated arrays     est. size (Mb)     dimensions
        Kohn-Sham Wavefunctions         0.08 Mb     (     684,    8)
        NL pseudopotentials             0.05 Mb     (     684,    5)
        Each V/rho on FFT grid          0.24 Mb     (   15625)
        Each G-vector array             0.04 Mb     (    5209)
        G-vector shells                 0.00 Mb     (     100)
     Largest temporary arrays     est. size (Mb)     dimensions
        Auxiliary wavefunctions         0.33 Mb     (     684,   32)
        Each subspace H/S matrix        0.02 Mb     (      32,   32)
        Each <psi_i|beta_j> matrix      0.00 Mb     (       5,    8)

     The potential is recalculated from file :
     ./Al.save/charge-density.dat

     Starting wfc are    4 randomized atomic wfcs +    4 random wfc

     Band Structure Calculation
     Davidson diagonalization with overlap

     ethr =  3.33E-10,  avg # of iterations = 17.5

     total cpu time spent up to now is       14.3 secs

     End of band structure calculation

     Number of k-points >= 100: set verbosity='high' to print the bands.

     Writing output data file Al.save

     init_run     :      0.13s CPU      0.14s WALL (       1 calls)
     electrons    :     10.68s CPU     14.04s WALL (       1 calls)

     Called by init_run:
     wfcinit      :      0.00s CPU      0.00s WALL (       1 calls)
     potinit      :      0.01s CPU      0.02s WALL (       1 calls)

     Called by electrons:
     c_bands      :     10.68s CPU     14.04s WALL (       1 calls)
     v_of_rho     :      0.01s CPU      0.02s WALL (       1 calls)

     Called by c_bands:
     init_us_2    :      0.03s CPU      0.04s WALL (     151 calls)
     cegterg      :      9.95s CPU     13.10s WALL (     193 calls)

     Called by *egterg:
     h_psi        :      6.56s CPU      8.62s WALL (    2987 calls)
     g_psi        :      0.08s CPU      0.09s WALL (    2643 calls)
     cdiaghg      :      0.92s CPU      1.21s WALL (    2794 calls)

     Called by h_psi:
     add_vuspsi   :      0.18s CPU      0.28s WALL (    2987 calls)

     General routines
     calbec       :      0.20s CPU      0.29s WALL (    2987 calls)
     fft          :      0.00s CPU      0.00s WALL (      10 calls)
     fftw         :      5.20s CPU      6.81s WALL (   32078 calls)
     davcio       :      0.00s CPU      0.02s WALL (     151 calls)

     Parallel routines
     fft_scatter  :      0.43s CPU      0.54s WALL (   32088 calls)

     PWSCF        :    11.22s CPU        15.22s WALL


   This run was terminated on:  12:29:15  17May2020            

=------------------------------------------------------------------------------=
   JOB DONE.
=------------------------------------------------------------------------------=
