
     Program PWSCF v.5.1 starts on 17May2020 at 12:28:58 

     This program is part of the open-source Quantum ESPRESSO suite
     for quantum simulation of materials; please cite
         "P. Giannozzi et al., J. Phys.:Condens. Matter 21 395502 (2009);
          URL http://www.quantum-espresso.org", 
     in publications or presentations arising from this work. More details at
     http://www.quantum-espresso.org/quote

     Parallel version (MPI), running on     1 processors
     Waiting for input...
     Reading input from standard input
     Message from routine read_cards :
     DEPRECATED: no units specified in ATOMIC_POSITIONS card
     Message from routine read_cards :
     ATOMIC_POSITIONS: units set to alat

     Current dimensions of program PWSCF are:
     Max number of different atomic species (ntypx) = 10
     Max number of k-points (npk) =  40000
     Max angular momentum in pseudopotentials (lmaxx) =  3

     Subspace diagonalization in iterative solution of the eigenvalue problem:
     a serial algorithm will be used


     G-vector sticks info
     --------------------
     sticks:   dense  smooth     PW     G-vecs:    dense   smooth      PW
     Sum         397     397    127                 5209     5209     965



     bravais-lattice index     =            2
     lattice parameter (alat)  =       7.6377  a.u.
     unit-cell volume          =     111.3837 (a.u.)^3
     number of atoms/cell      =            1
     number of atomic types    =            1
     number of electrons       =         3.00
     number of Kohn-Sham states=            6
     kinetic-energy cutoff     =      50.0000  Ry
     charge density cutoff     =     200.0000  Ry
     convergence threshold     =      1.0E-08
     mixing beta               =       0.7000
     number of iterations used =            8  plain     mixing
     Exchange-correlation      = SLA-PW-PBX-PBC ( 1  4  3  4 0)

     celldm(1)=   7.637663  celldm(2)=   0.000000  celldm(3)=   0.000000
     celldm(4)=   0.000000  celldm(5)=   0.000000  celldm(6)=   0.000000

     crystal axes: (cart. coord. in units of alat)
               a(1) = (  -0.500000   0.000000   0.500000 )  
               a(2) = (   0.000000   0.500000   0.500000 )  
               a(3) = (  -0.500000   0.500000   0.000000 )  

     reciprocal axes: (cart. coord. in units 2 pi/alat)
               b(1) = ( -1.000000 -1.000000  1.000000 )  
               b(2) = (  1.000000  1.000000  1.000000 )  
               b(3) = ( -1.000000  1.000000 -1.000000 )  


     PseudoPot. # 1 for Al read from file:
     ./Al.UPF
     MD5 check sum: 35dc628c1db15067e5ee3d0771eea4f3
     Pseudo is Norm-conserving, Zval =  3.0
     Generated in analytical, separable form
     Using radial grid of 1135 points,  3 beta functions with: 
                l(1) =   0
                l(2) =   0
                l(3) =   1

     atomic species   valence    mass     pseudopotential
        Al             3.00    26.98154     Al( 1.00)

     48 Sym. Ops., with inversion, found



   Cartesian axes

     site n.     atom                  positions (alat units)
         1           Al  tau(   1) = (   0.0000000   0.0000000   0.0000000  )

     number of k points=    16  gaussian smearing, width (Ry)=  0.0030
                       cart. coord. in units 2pi/alat
        k(    1) = (   0.0000000   0.0000000   0.0000000), wk =   0.0092593
        k(    2) = (  -0.1666667   0.1666667  -0.1666667), wk =   0.0740741
        k(    3) = (  -0.3333333   0.3333333  -0.3333333), wk =   0.0740741
        k(    4) = (   0.5000000  -0.5000000   0.5000000), wk =   0.0370370
        k(    5) = (   0.0000000   0.3333333   0.0000000), wk =   0.0555556
        k(    6) = (  -0.1666667   0.5000000  -0.1666667), wk =   0.2222222
        k(    7) = (   0.6666667  -0.3333333   0.6666667), wk =   0.2222222
        k(    8) = (   0.5000000  -0.1666667   0.5000000), wk =   0.2222222
        k(    9) = (   0.3333333   0.0000000   0.3333333), wk =   0.1111111
        k(   10) = (   0.0000000   0.6666667   0.0000000), wk =   0.0555556
        k(   11) = (   0.8333333  -0.1666667   0.8333333), wk =   0.2222222
        k(   12) = (   0.6666667  -0.0000000   0.6666667), wk =   0.1111111
        k(   13) = (   0.0000000  -1.0000000   0.0000000), wk =   0.0277778
        k(   14) = (   0.6666667  -0.3333333   1.0000000), wk =   0.2222222
        k(   15) = (   0.5000000  -0.1666667   0.8333333), wk =   0.2222222
        k(   16) = (  -0.3333333  -1.0000000   0.0000000), wk =   0.1111111

     Dense  grid:     5209 G-vectors     FFT dimensions: (  25,  25,  25)

     Largest allocated arrays     est. size (Mb)     dimensions
        Kohn-Sham Wavefunctions         0.06 Mb     (     680,    6)
        NL pseudopotentials             0.05 Mb     (     680,    5)
        Each V/rho on FFT grid          0.24 Mb     (   15625)
        Each G-vector array             0.04 Mb     (    5209)
        G-vector shells                 0.00 Mb     (     100)
     Largest temporary arrays     est. size (Mb)     dimensions
        Auxiliary wavefunctions         0.25 Mb     (     680,   24)
        Each subspace H/S matrix        0.01 Mb     (      24,   24)
        Each <psi_i|beta_j> matrix      0.00 Mb     (       5,    6)
        Arrays for rho mixing           1.91 Mb     (   15625,    8)

     Initial potential from superposition of free atoms

     starting charge    2.99771, renormalised to    3.00000
     Starting wfc are    4 randomized atomic wfcs +    2 random wfc

     total cpu time spent up to now is        0.6 secs

     per-process dynamical memory:     7.8 Mb

     Self-consistent Calculation

     iteration #  1     ecut=    50.00 Ry     beta=0.70
     Davidson diagonalization with overlap
     ethr =  1.00E-02,  avg # of iterations =  4.6

     Threshold (ethr) on eigenvalues was too large:
     Diagonalizing with lowered threshold

     Davidson diagonalization with overlap
     ethr =  1.80E-04,  avg # of iterations =  2.3

     total cpu time spent up to now is        1.1 secs

     total energy              =      -4.15277816 Ry
     Harris-Foulkes estimate   =      -4.15353765 Ry
     estimated scf accuracy    <       0.00547564 Ry

     iteration #  2     ecut=    50.00 Ry     beta=0.70
     Davidson diagonalization with overlap
     ethr =  1.83E-04,  avg # of iterations =  1.0

     total cpu time spent up to now is        1.2 secs

     total energy              =      -4.15275890 Ry
     Harris-Foulkes estimate   =      -4.15281185 Ry
     estimated scf accuracy    <       0.00042819 Ry

     iteration #  3     ecut=    50.00 Ry     beta=0.70
     Davidson diagonalization with overlap
     ethr =  1.43E-05,  avg # of iterations =  1.1

     total cpu time spent up to now is        1.3 secs

     total energy              =      -4.15276488 Ry
     Harris-Foulkes estimate   =      -4.15276459 Ry
     estimated scf accuracy    <       0.00000036 Ry

     iteration #  4     ecut=    50.00 Ry     beta=0.70
     Davidson diagonalization with overlap
     ethr =  1.19E-08,  avg # of iterations =  2.6

     total cpu time spent up to now is        1.4 secs

     End of self-consistent calculation

          k = 0.0000 0.0000 0.0000 (   645 PWs)   bands (ev):

    -3.1893  20.5581  20.5582  21.8205  21.8205  21.8205

          k =-0.1667 0.1667-0.1667 (   655 PWs)   bands (ev):

    -2.4365  14.5689  19.2359  19.2359  22.3980  23.7625

          k =-0.3333 0.3333-0.3333 (   658 PWs)   bands (ev):

    -0.1999   8.4423  18.6541  18.6541  21.2248  21.2248

          k = 0.5000-0.5000 0.5000 (   652 PWs)   bands (ev):

     3.3533   3.5685  19.2326  19.2326  19.3992  19.3992

          k = 0.0000 0.3333 0.0000 (   665 PWs)   bands (ev):

    -2.1864  16.9206  16.9206  17.0979  20.0415  20.4025

          k =-0.1667 0.5000-0.1667 (   664 PWs)   bands (ev):

    -0.4471  10.9429  15.8724  16.5974  17.4904  22.3040

          k = 0.6667-0.3333 0.6667 (   662 PWs)   bands (ev):

     2.7273   5.6146  14.1442  16.0973  17.8492  23.8097

          k = 0.5000-0.1667 0.5000 (   672 PWs)   bands (ev):

     1.5165   7.2451  13.0379  17.5943  19.4969  22.7619

          k = 0.3333 0.0000 0.3333 (   654 PWs)   bands (ev):

    -1.1900  12.4248  13.8235  20.3079  22.3229  22.5083

          k = 0.0000 0.6667 0.0000 (   664 PWs)   bands (ev):

     0.7810  12.3141  14.1817  14.3824  14.3824  17.7985

          k = 0.8333-0.1667 0.8333 (   668 PWs)   bands (ev):

     3.4313   8.9782   9.4471  14.1741  15.6473  20.7538

          k = 0.6667-0.0000 0.6667 (   680 PWs)   bands (ev):

     4.6420   6.8753   8.3328  15.2442  16.9747  26.4198

          k = 0.0000-1.0000 0.0000 (   652 PWs)   bands (ev):

     5.0277   6.3415  13.1908  13.5352  13.5352  16.9113

          k = 0.6667-0.3333 1.0000 (   662 PWs)   bands (ev):

     1.7578   9.6516  11.1037  13.3009  20.7128  22.2259

          k = 0.5000-0.1667 0.8333 (   672 PWs)   bands (ev):

     5.2119   5.4797  10.9447  11.5098  21.8405  22.3876

          k =-0.3333-1.0000 0.0000 (   674 PWs)   bands (ev):

     5.9510   7.2917   8.7258  10.2885  19.8273  21.5630

     the Fermi energy is     8.3267 ev

!    total energy              =      -4.15276518 Ry
     Harris-Foulkes estimate   =      -4.15276519 Ry
     estimated scf accuracy    <          3.1E-09 Ry

     The total energy is the sum of the following terms:

     one-electron contribution =       2.84999515 Ry
     hartree contribution      =       0.00802390 Ry
     xc contribution           =      -1.60802403 Ry
     ewald contribution        =      -5.40266820 Ry
     smearing contrib. (-TS)   =      -0.00009199 Ry

     convergence has been achieved in   4 iterations

     Writing output data file Al.save

     init_run     :      0.20s CPU      0.42s WALL (       1 calls)
     electrons    :      0.63s CPU      0.83s WALL (       1 calls)

     Called by init_run:
     wfcinit      :      0.06s CPU      0.11s WALL (       1 calls)
     potinit      :      0.02s CPU      0.03s WALL (       1 calls)

     Called by electrons:
     c_bands      :      0.47s CPU      0.62s WALL (       5 calls)
     sum_band     :      0.09s CPU      0.11s WALL (       5 calls)
     v_of_rho     :      0.07s CPU      0.07s WALL (       5 calls)
     mix_rho      :      0.00s CPU      0.01s WALL (       5 calls)

     Called by c_bands:
     init_us_2    :      0.03s CPU      0.03s WALL (     176 calls)
     cegterg      :      0.45s CPU      0.60s WALL (      80 calls)

     Called by *egterg:
     h_psi        :      0.38s CPU      0.50s WALL (     282 calls)
     g_psi        :      0.00s CPU      0.00s WALL (     186 calls)
     cdiaghg      :      0.03s CPU      0.09s WALL (     250 calls)

     Called by h_psi:
     add_vuspsi   :      0.01s CPU      0.01s WALL (     282 calls)

     General routines
     calbec       :      0.01s CPU      0.01s WALL (     282 calls)
     fft          :      0.01s CPU      0.08s WALL (      56 calls)
     fftw         :      0.35s CPU      0.46s WALL (    3152 calls)
     davcio       :      0.00s CPU      0.00s WALL (      16 calls)

     Parallel routines
     fft_scatter  :      0.04s CPU      0.04s WALL (    3208 calls)

     PWSCF        :     1.01s CPU         1.89s WALL


   This run was terminated on:  12:29: 0  17May2020            

=------------------------------------------------------------------------------=
   JOB DONE.
=------------------------------------------------------------------------------=
