
     Program PWSCF v.5.1 starts on 21May2020 at 22:35:42 

     This program is part of the open-source Quantum ESPRESSO suite
     for quantum simulation of materials; please cite
         "P. Giannozzi et al., J. Phys.:Condens. Matter 21 395502 (2009);
          URL http://www.quantum-espresso.org", 
     in publications or presentations arising from this work. More details at
     http://www.quantum-espresso.org/quote

     Parallel version (MPI), running on     2 processors
     R & G space division:  proc/nbgrp/npool/nimage =       2
     Waiting for input...
     Reading input from standard input
     Message from routine read_cards :
     DEPRECATED: no units specified in ATOMIC_POSITIONS card
     Message from routine read_cards :
     ATOMIC_POSITIONS: units set to alat

     Current dimensions of program PWSCF are:
     Max number of different atomic species (ntypx) = 10
     Max number of k-points (npk) =  40000
     Max angular momentum in pseudopotentials (lmaxx) =  3

     Subspace diagonalization in iterative solution of the eigenvalue problem:
     a serial algorithm will be used


     Parallelization info
     --------------------
     sticks:   dense  smooth     PW     G-vecs:    dense   smooth      PW
     Min         138     138     46                13790    13790    2635
     Max         139     139     51                13811    13811    2636
     Sum         277     277     97                27601    27601    5271



     bravais-lattice index     =            6
     lattice parameter (alat)  =       5.3700  a.u.
     unit-cell volume          =    1238.8332 (a.u.)^3
     number of atoms/cell      =            7
     number of atomic types    =            1
     number of electrons       =        21.00
     number of Kohn-Sham states=           15
     kinetic-energy cutoff     =      30.0000  Ry
     charge density cutoff     =     120.0000  Ry
     convergence threshold     =      1.0E-06
     mixing beta               =       0.3000
     number of iterations used =            8  plain     mixing
     Exchange-correlation      = SLA-PW-PBX-PBC ( 1  4  3  4 0)
     nstep                     =           50


     celldm(1)=   5.370000  celldm(2)=   0.000000  celldm(3)=   8.000000
     celldm(4)=   0.000000  celldm(5)=   0.000000  celldm(6)=   0.000000

     crystal axes: (cart. coord. in units of alat)
               a(1) = (   1.000000   0.000000   0.000000 )  
               a(2) = (   0.000000   1.000000   0.000000 )  
               a(3) = (   0.000000   0.000000   8.000000 )  

     reciprocal axes: (cart. coord. in units 2 pi/alat)
               b(1) = (  1.000000  0.000000  0.000000 )  
               b(2) = (  0.000000  1.000000  0.000000 )  
               b(3) = (  0.000000  0.000000  0.125000 )  


     PseudoPot. # 1 for Al read from file:
     ./Al.UPF
     MD5 check sum: 35dc628c1db15067e5ee3d0771eea4f3
     Pseudo is Norm-conserving, Zval =  3.0
     Generated in analytical, separable form
     Using radial grid of 1135 points,  3 beta functions with: 
                l(1) =   0
                l(2) =   0
                l(3) =   1

     atomic species   valence    mass     pseudopotential
        Al             3.00    26.98154     Al( 1.00)

     16 Sym. Ops., with inversion, found



   Cartesian axes

     site n.     atom                  positions (alat units)
         1           Al  tau(   1) = (   0.5000000   0.5000000  -2.1213200  )
         2           Al  tau(   2) = (   0.0000000   0.0000000  -1.4142130  )
         3           Al  tau(   3) = (   0.5000000   0.5000000  -0.7071070  )
         4           Al  tau(   4) = (   0.0000000   0.0000000   0.0000000  )
         5           Al  tau(   5) = (   0.5000000   0.5000000   0.7071070  )
         6           Al  tau(   6) = (   0.0000000   0.0000000   1.4142130  )
         7           Al  tau(   7) = (   0.5000000   0.5000000   2.1213200  )

     number of k points=    10  gaussian smearing, width (Ry)=  0.0500
                       cart. coord. in units 2pi/alat
        k(    1) = (   0.0000000   0.0000000   0.0000000), wk =   0.0555556
        k(    2) = (   0.0000000   0.1666667   0.0000000), wk =   0.2222222
        k(    3) = (   0.0000000   0.3333333   0.0000000), wk =   0.2222222
        k(    4) = (   0.0000000  -0.5000000   0.0000000), wk =   0.1111111
        k(    5) = (   0.1666667   0.1666667   0.0000000), wk =   0.2222222
        k(    6) = (   0.1666667   0.3333333   0.0000000), wk =   0.4444444
        k(    7) = (   0.1666667  -0.5000000   0.0000000), wk =   0.2222222
        k(    8) = (   0.3333333   0.3333333   0.0000000), wk =   0.2222222
        k(    9) = (   0.3333333  -0.5000000   0.0000000), wk =   0.2222222
        k(   10) = (  -0.5000000  -0.5000000   0.0000000), wk =   0.0555556

     Dense  grid:    27601 G-vectors     FFT dimensions: (  20,  20, 150)

     Largest allocated arrays     est. size (Mb)     dimensions
        Kohn-Sham Wavefunctions         0.42 Mb     (    1855,   15)
        NL pseudopotentials             0.99 Mb     (    1855,   35)
        Each V/rho on FFT grid          0.46 Mb     (   30000)
        Each G-vector array             0.11 Mb     (   13811)
        G-vector shells                 0.01 Mb     (     945)
     Largest temporary arrays     est. size (Mb)     dimensions
        Auxiliary wavefunctions         1.70 Mb     (    1855,   60)
        Each subspace H/S matrix        0.05 Mb     (      60,   60)
        Each <psi_i|beta_j> matrix      0.01 Mb     (      35,   15)
        Arrays for rho mixing           3.66 Mb     (   30000,    8)

     Initial potential from superposition of free atoms

     starting charge   20.98398, renormalised to   21.00000

     negative rho (up, down):  2.467E-06 0.000E+00
     Starting wfc are   28 randomized atomic wfcs

     total cpu time spent up to now is        1.7 secs

     per-process dynamical memory:    16.3 Mb

     Self-consistent Calculation

     iteration #  1     ecut=    30.00 Ry     beta=0.30
     Davidson diagonalization with overlap
     ethr =  1.00E-02,  avg # of iterations =  3.1

     negative rho (up, down):  1.161E-06 0.000E+00

     total cpu time spent up to now is        3.6 secs

     total energy              =     -28.75433228 Ry
     Harris-Foulkes estimate   =     -29.04849100 Ry
     estimated scf accuracy    <       0.63216941 Ry

     iteration #  2     ecut=    30.00 Ry     beta=0.30
     Davidson diagonalization with overlap
     ethr =  3.01E-03,  avg # of iterations =  4.1

     total cpu time spent up to now is        5.3 secs

     total energy              =     -28.06477081 Ry
     Harris-Foulkes estimate   =     -29.79876094 Ry
     estimated scf accuracy    <      22.24499649 Ry

     iteration #  3     ecut=    30.00 Ry     beta=0.30
     Davidson diagonalization with overlap
     ethr =  3.01E-03,  avg # of iterations =  4.4

     total cpu time spent up to now is        6.8 secs

     total energy              =     -28.99535516 Ry
     Harris-Foulkes estimate   =     -29.00867432 Ry
     estimated scf accuracy    <       0.12362490 Ry

     iteration #  4     ecut=    30.00 Ry     beta=0.30
     Davidson diagonalization with overlap
     ethr =  5.89E-04,  avg # of iterations =  1.5

     total cpu time spent up to now is        7.5 secs

     total energy              =     -28.99757516 Ry
     Harris-Foulkes estimate   =     -29.00140473 Ry
     estimated scf accuracy    <       0.02013227 Ry

     iteration #  5     ecut=    30.00 Ry     beta=0.30
     Davidson diagonalization with overlap
     ethr =  9.59E-05,  avg # of iterations =  2.5

     total cpu time spent up to now is        8.6 secs

     total energy              =     -28.99882467 Ry
     Harris-Foulkes estimate   =     -28.99969170 Ry
     estimated scf accuracy    <       0.00599058 Ry

     iteration #  6     ecut=    30.00 Ry     beta=0.30
     Davidson diagonalization with overlap
     ethr =  2.85E-05,  avg # of iterations =  2.3

     total cpu time spent up to now is        9.8 secs

     total energy              =     -28.99924144 Ry
     Harris-Foulkes estimate   =     -28.99932924 Ry
     estimated scf accuracy    <       0.00058961 Ry

     iteration #  7     ecut=    30.00 Ry     beta=0.30
     Davidson diagonalization with overlap
     ethr =  2.81E-06,  avg # of iterations =  5.1

     total cpu time spent up to now is       11.2 secs

     total energy              =     -28.99929125 Ry
     Harris-Foulkes estimate   =     -28.99931248 Ry
     estimated scf accuracy    <       0.00017925 Ry

     iteration #  8     ecut=    30.00 Ry     beta=0.30
     Davidson diagonalization with overlap
     ethr =  8.54E-07,  avg # of iterations =  1.6

     total cpu time spent up to now is       12.2 secs

     total energy              =     -28.99929511 Ry
     Harris-Foulkes estimate   =     -28.99929962 Ry
     estimated scf accuracy    <       0.00001912 Ry

     iteration #  9     ecut=    30.00 Ry     beta=0.30
     Davidson diagonalization with overlap
     ethr =  9.11E-08,  avg # of iterations =  2.6

     total cpu time spent up to now is       13.4 secs

     total energy              =     -28.99929811 Ry
     Harris-Foulkes estimate   =     -28.99929932 Ry
     estimated scf accuracy    <       0.00000755 Ry

     iteration # 10     ecut=    30.00 Ry     beta=0.30
     Davidson diagonalization with overlap
     ethr =  3.59E-08,  avg # of iterations =  1.5

     total cpu time spent up to now is       14.6 secs

     End of self-consistent calculation

          k = 0.0000 0.0000 0.0000 (  3463 PWs)   bands (ev):

    -7.6477  -7.1328  -6.2864  -5.1574  -3.7615  -2.0878  -0.1244   1.1617
     3.7619   5.7172   6.8667   8.4795   8.6277   8.8632   9.2551

          k = 0.0000 0.1667 0.0000 (  3465 PWs)   bands (ev):

    -7.1403  -6.6269  -5.7829  -4.6571  -3.2651  -1.5959   0.3641   1.6326
     4.1233   4.6502   4.9601   5.7743   6.2318   6.8524   7.3767

          k = 0.0000 0.3333 0.0000 (  3428 PWs)   bands (ev):

    -5.6282  -5.1192  -4.2826  -3.1666  -1.7872  -0.1399   0.2582   0.7761
     1.5637   1.8476   2.6260   3.0711   4.0033   5.6315   5.7104

          k = 0.0000-0.5000 0.0000 (  3442 PWs)   bands (ev):

    -3.1482  -3.1358  -2.6669  -2.6153  -1.8921  -1.7338  -0.7572  -0.6625
     0.5685   0.7316   2.1347   2.4413   3.9390   4.5969   5.1183

          k = 0.1667 0.1667 0.0000 (  3439 PWs)   bands (ev):

    -6.6346  -6.1226  -5.2811  -4.1585  -2.7704  -1.1058   0.8506   2.1035
     4.3710   4.6290   4.8460   5.6266   6.0601   6.1493   6.6738

          k = 0.1667 0.3333 0.0000 (  3433 PWs)   bands (ev):

    -5.1276  -4.6202  -3.7860  -2.6733  -1.2980   0.3434   0.7173   1.2339
     2.0195   2.3227   3.0781   3.5358   4.4443   6.0368   6.0644

          k = 0.1667-0.5000 0.0000 (  3442 PWs)   bands (ev):

    -2.6584  -2.6459  -2.1791  -2.1270  -1.4093  -1.2457  -0.2857  -0.1684
     1.0522   1.2054   2.6115   2.9097   4.4072   5.0520   5.5859

          k = 0.3333 0.3333 0.0000 (  3424 PWs)   bands (ev):

    -3.6380  -3.1352  -2.3086  -1.2063   0.1553   1.5666   1.7777   2.0416
     2.8234   2.9172   3.5417   3.8134   3.8736   4.3628   4.8559

          k = 0.3333-0.5000 0.0000 (  3412 PWs)   bands (ev):

    -1.2122  -1.2006  -0.7383  -0.6884   0.0205   0.1834   1.1134   1.2688
     2.4709   2.5920   3.9998   4.2575   4.7207   4.7529   5.2332

          k =-0.5000-0.5000 0.0000 (  3428 PWs)   bands (ev):

     0.6333   0.6333   1.1080   1.1080   1.8898   1.8898   1.9797   2.0111
     2.4217   2.5587   2.9402   2.9402   3.0935   3.6003   4.2538

     the Fermi energy is     3.4606 ev

!    total energy              =     -28.99929799 Ry
     Harris-Foulkes estimate   =     -28.99929856 Ry
     estimated scf accuracy    <       0.00000063 Ry

     The total energy is the sum of the following terms:

     one-electron contribution =    -179.78225725 Ry
     hartree contribution      =      96.49160957 Ry
     xc contribution           =     -11.09858967 Ry
     ewald contribution        =      65.43093269 Ry
     smearing contrib. (-TS)   =      -0.04099333 Ry

     convergence has been achieved in  10 iterations

     Forces acting on atoms (Ry/au):

     atom    1 type  1   force =     0.00000000    0.00000000   -0.00358157
     atom    2 type  1   force =     0.00000000    0.00000000   -0.00474592
     atom    3 type  1   force =     0.00000000    0.00000000    0.00449651
     atom    4 type  1   force =     0.00000000    0.00000000    0.00000000
     atom    5 type  1   force =     0.00000000    0.00000000   -0.00449651
     atom    6 type  1   force =     0.00000000    0.00000000    0.00474592
     atom    7 type  1   force =     0.00000000    0.00000000    0.00358157

     Total force =     0.010542     Total SCF correction =     0.001292
     SCF correction compared to forces is large: reduce conv_thr to get better values

     BFGS Geometry Optimization

     number of scf cycles    =   1
     number of bfgs steps    =   0

     energy   new            =     -28.9992979854 Ry

     new trust radius        =       0.0047459166 bohr
     new conv_thr            =       0.0000010000 Ry


ATOMIC_POSITIONS (alat)
Al       0.500000000   0.500000000  -2.121986958
Al       0.000000000   0.000000000  -1.415096783
Al       0.500000000   0.500000000  -0.706269661
Al       0.000000000   0.000000000   0.000000000
Al       0.500000000   0.500000000   0.706269661
Al       0.000000000   0.000000000   1.415096783
Al       0.500000000   0.500000000   2.121986958



     Writing output data file pwscf.save
     NEW-OLD atomic charge density approx. for the potential

     total cpu time spent up to now is       15.9 secs

     per-process dynamical memory:    17.2 Mb

     Self-consistent Calculation

     iteration #  1     ecut=    30.00 Ry     beta=0.30
     Davidson diagonalization with overlap
     ethr =  1.00E-06,  avg # of iterations =  3.0

     total cpu time spent up to now is       17.5 secs

     total energy              =     -28.99928690 Ry
     Harris-Foulkes estimate   =     -28.99941267 Ry
     estimated scf accuracy    <       0.00025143 Ry

     iteration #  2     ecut=    30.00 Ry     beta=0.30
     Davidson diagonalization with overlap
     ethr =  1.20E-06,  avg # of iterations =  3.6

     total cpu time spent up to now is       18.9 secs

     total energy              =     -28.99902837 Ry
     Harris-Foulkes estimate   =     -28.99980054 Ry
     estimated scf accuracy    <       0.00964429 Ry

     iteration #  3     ecut=    30.00 Ry     beta=0.30
     Davidson diagonalization with overlap
     ethr =  1.20E-06,  avg # of iterations =  3.3

     total cpu time spent up to now is       20.1 secs

     total energy              =     -28.99941014 Ry
     Harris-Foulkes estimate   =     -28.99941039 Ry
     estimated scf accuracy    <       0.00000189 Ry

     iteration #  4     ecut=    30.00 Ry     beta=0.30
     Davidson diagonalization with overlap
     ethr =  8.98E-09,  avg # of iterations =  2.4

     total cpu time spent up to now is       21.2 secs

     End of self-consistent calculation

          k = 0.0000 0.0000 0.0000 (  3463 PWs)   bands (ev):

    -7.6445  -7.1240  -6.2872  -5.1566  -3.7565  -2.0880  -0.1249   1.1611
     3.7601   5.7137   6.8640   8.4768   8.6254   8.8664   9.2583

          k = 0.0000 0.1667 0.0000 (  3465 PWs)   bands (ev):

    -7.1371  -6.6181  -5.7837  -4.6563  -3.2601  -1.5961   0.3636   1.6321
     4.1231   4.6519   4.9692   5.7731   6.2282   6.8531   7.3742

          k = 0.0000 0.3333 0.0000 (  3428 PWs)   bands (ev):

    -5.6249  -5.1104  -4.2833  -3.1657  -1.7822  -0.1398   0.2614   0.7848
     1.5629   1.8472   2.6273   3.0700   4.0083   5.6312   5.7090

          k = 0.0000-0.5000 0.0000 (  3442 PWs)   bands (ev):

    -3.1454  -3.1321  -2.6578  -2.6066  -1.8929  -1.7345  -0.7563  -0.6617
     0.5732   0.7372   2.1354   2.4400   3.9376   4.5972   5.1177

          k = 0.1667 0.1667 0.0000 (  3439 PWs)   bands (ev):

    -6.6314  -6.1138  -5.2818  -4.1576  -2.7654  -1.1060   0.8502   2.1030
     4.3743   4.6279   4.8555   5.6254   6.0623   6.1557   6.6745

          k = 0.1667 0.3333 0.0000 (  3433 PWs)   bands (ev):

    -5.1244  -4.6113  -3.7867  -2.6724  -1.2930   0.3435   0.7205   1.2426
     2.0187   2.3223   3.0793   3.5348   4.4494   6.0365   6.0642

          k = 0.1667-0.5000 0.0000 (  3442 PWs)   bands (ev):

    -2.6555  -2.6423  -2.1700  -2.1182  -1.4101  -1.2465  -0.2849  -0.1675
     1.0570   1.2110   2.6122   2.9084   4.4058   5.0524   5.5853

          k = 0.3333 0.3333 0.0000 (  3424 PWs)   bands (ev):

    -3.6348  -3.1263  -2.3094  -1.2055   0.1604   1.5698   1.7779   2.0509
     2.8223   2.9204   3.5500   3.8131   3.8743   4.3624   4.8564

          k = 0.3333-0.5000 0.0000 (  3412 PWs)   bands (ev):

    -1.2093  -1.1969  -0.7291  -0.6796   0.0197   0.1826   1.1142   1.2696
     2.4759   2.5977   4.0006   4.2570   4.7234   4.7570   5.2423

          k =-0.5000-0.5000 0.0000 (  3428 PWs)   bands (ev):

     0.6366   0.6366   1.1173   1.1173   1.8887   1.8887   1.9819   2.0155
     2.4313   2.5670   2.9409   2.9409   3.0931   3.5999   4.2225

     the Fermi energy is     3.4616 ev

!    total energy              =     -28.99941013 Ry
     Harris-Foulkes estimate   =     -28.99941037 Ry
     estimated scf accuracy    <       0.00000039 Ry

     The total energy is the sum of the following terms:

     one-electron contribution =    -179.58436702 Ry
     hartree contribution      =      96.38556474 Ry
     xc contribution           =     -11.09750679 Ry
     ewald contribution        =      65.33790743 Ry
     smearing contrib. (-TS)   =      -0.04100849 Ry

     convergence has been achieved in   4 iterations

     Forces acting on atoms (Ry/au):

     atom    1 type  1   force =     0.00000000    0.00000000   -0.00347267
     atom    2 type  1   force =     0.00000000    0.00000000   -0.00424968
     atom    3 type  1   force =     0.00000000    0.00000000    0.00362993
     atom    4 type  1   force =     0.00000000    0.00000000    0.00000000
     atom    5 type  1   force =     0.00000000    0.00000000   -0.00362993
     atom    6 type  1   force =     0.00000000    0.00000000    0.00424968
     atom    7 type  1   force =     0.00000000    0.00000000    0.00347267

     Total force =     0.009305     Total SCF correction =     0.000795

     number of scf cycles    =   2
     number of bfgs steps    =   1

     energy   old            =     -28.9992979854 Ry
     energy   new            =     -28.9994101336 Ry

     CASE: energy  _new < energy  _old


     WARNING: bfgs curvature condition failed, Theta= 0.909
     new trust radius        =       0.0052205083 bohr
     new conv_thr            =       0.0000000112 Ry


ATOMIC_POSITIONS (alat)
Al       0.500000000   0.500000000  -2.122772239
Al       0.000000000   0.000000000  -1.416068945
Al       0.500000000   0.500000000  -0.705425641
Al       0.000000000   0.000000000   0.000000000
Al       0.500000000   0.500000000   0.705425641
Al       0.000000000   0.000000000   1.416068945
Al       0.500000000   0.500000000   2.122772239



     Writing output data file pwscf.save
     NEW-OLD atomic charge density approx. for the potential

     total cpu time spent up to now is       22.3 secs

     per-process dynamical memory:    20.7 Mb

     Self-consistent Calculation

     iteration #  1     ecut=    30.00 Ry     beta=0.30
     Davidson diagonalization with overlap
     ethr =  1.00E-06,  avg # of iterations =  2.3

     total cpu time spent up to now is       23.6 secs

     total energy              =     -28.99948194 Ry
     Harris-Foulkes estimate   =     -28.99951111 Ry
     estimated scf accuracy    <       0.00005878 Ry

     iteration #  2     ecut=    30.00 Ry     beta=0.30
     Davidson diagonalization with overlap
     ethr =  2.80E-07,  avg # of iterations =  3.1

     total cpu time spent up to now is       24.7 secs

     total energy              =     -28.99942302 Ry
     Harris-Foulkes estimate   =     -28.99959749 Ry
     estimated scf accuracy    <       0.00218612 Ry

     iteration #  3     ecut=    30.00 Ry     beta=0.30
     Davidson diagonalization with overlap
     ethr =  2.80E-07,  avg # of iterations =  3.0

     total cpu time spent up to now is       25.9 secs

     total energy              =     -28.99950912 Ry
     Harris-Foulkes estimate   =     -28.99950913 Ry
     estimated scf accuracy    <       0.00000029 Ry

     iteration #  4     ecut=    30.00 Ry     beta=0.30
     Davidson diagonalization with overlap
     ethr =  1.39E-09,  avg # of iterations =  3.1

     total cpu time spent up to now is       27.2 secs

     total energy              =     -28.99950920 Ry
     Harris-Foulkes estimate   =     -28.99950920 Ry
     estimated scf accuracy    <       0.00000009 Ry

     iteration #  5     ecut=    30.00 Ry     beta=0.30
     Davidson diagonalization with overlap
     ethr =  4.11E-10,  avg # of iterations =  1.7

     total cpu time spent up to now is       28.5 secs

     total energy              =     -28.99950923 Ry
     Harris-Foulkes estimate   =     -28.99950921 Ry
     estimated scf accuracy    <       0.00000003 Ry

     iteration #  6     ecut=    30.00 Ry     beta=0.30
     Davidson diagonalization with overlap
     ethr =  1.31E-10,  avg # of iterations =  1.5

     total cpu time spent up to now is       29.7 secs

     End of self-consistent calculation

          k = 0.0000 0.0000 0.0000 (  3463 PWs)   bands (ev):

    -7.6430  -7.1164  -6.2895  -5.1571  -3.7533  -2.0897  -0.1267   1.1594
     3.7568   5.7094   6.8632   8.4751   8.6241   8.8680   9.2599

          k = 0.0000 0.1667 0.0000 (  3465 PWs)   bands (ev):

    -7.1356  -6.6105  -5.7860  -4.6568  -3.2569  -1.5978   0.3619   1.6303
     4.1213   4.6518   4.9772   5.7704   6.2236   6.8524   7.3736

          k = 0.0000 0.3333 0.0000 (  3428 PWs)   bands (ev):

    -5.6234  -5.1027  -4.2856  -3.1662  -1.7789  -0.1412   0.2630   0.7923
     1.5606   1.8455   2.6272   3.0677   4.0115   5.6294   5.7061

          k = 0.0000-0.5000 0.0000 (  3442 PWs)   bands (ev):

    -3.1443  -3.1301  -2.6498  -2.5991  -1.8953  -1.7369  -0.7568  -0.6623
     0.5764   0.7410   2.1348   2.4370   3.9350   4.5962   5.1159

          k = 0.1667 0.1667 0.0000 (  3439 PWs)   bands (ev):

    -6.6299  -6.1062  -5.2842  -4.1582  -2.7622  -1.1076   0.8485   2.1013
     4.3759   4.6254   4.8637   5.6226   6.0627   6.1611   6.6738

          k = 0.1667 0.3333 0.0000 (  3433 PWs)   bands (ev):

    -5.1229  -4.6037  -3.7891  -2.6729  -1.2898   0.3422   0.7222   1.2502
     2.0163   2.3206   3.0792   3.5326   4.4529   6.0348   6.0623

          k = 0.1667-0.5000 0.0000 (  3442 PWs)   bands (ev):

    -2.6545  -2.6402  -2.1620  -2.1107  -1.4125  -1.2488  -0.2854  -0.1681
     1.0601   1.2149   2.6116   2.9055   4.4033   5.0514   5.5835

          k = 0.3333 0.3333 0.0000 (  3424 PWs)   bands (ev):

    -3.6332  -3.1186  -2.3117  -1.2060   0.1638   1.5714   1.7767   2.0591
     2.8196   2.9221   3.5570   3.8116   3.8736   4.3603   4.8558

          k = 0.3333-0.5000 0.0000 (  3412 PWs)   bands (ev):

    -1.2082  -1.1949  -0.7210  -0.6719   0.0173   0.1802   1.1137   1.2690
     2.4793   2.6017   4.0000   4.2550   4.7243   4.7597   5.2502

          k =-0.5000-0.5000 0.0000 (  3428 PWs)   bands (ev):

     0.6381   0.6381   1.1255   1.1255   1.8860   1.8860   1.9823   2.0186
     2.4397   2.5742   2.9402   2.9402   3.0912   3.5978   4.2222

     the Fermi energy is     3.4613 ev

!    total energy              =     -28.99950923 Ry
     Harris-Foulkes estimate   =     -28.99950923 Ry
     estimated scf accuracy    <          1.8E-09 Ry

     The total energy is the sum of the following terms:

     one-electron contribution =    -179.37347414 Ry
     hartree contribution      =      96.28309960 Ry
     xc contribution           =     -11.09647077 Ry
     ewald contribution        =      65.22833807 Ry
     smearing contrib. (-TS)   =      -0.04100200 Ry

     convergence has been achieved in   6 iterations

     Forces acting on atoms (Ry/au):

     atom    1 type  1   force =     0.00000000    0.00000000   -0.00347892
     atom    2 type  1   force =     0.00000000    0.00000000   -0.00360009
     atom    3 type  1   force =     0.00000000    0.00000000    0.00267021
     atom    4 type  1   force =     0.00000000    0.00000000    0.00000000
     atom    5 type  1   force =     0.00000000    0.00000000   -0.00267021
     atom    6 type  1   force =     0.00000000    0.00000000    0.00360009
     atom    7 type  1   force =     0.00000000    0.00000000    0.00347892

     Total force =     0.008024     Total SCF correction =     0.000059

     number of scf cycles    =   3
     number of bfgs steps    =   2

     energy   old            =     -28.9994101336 Ry
     energy   new            =     -28.9995092306 Ry

     CASE: energy  _new < energy  _old

     new trust radius        =       0.0078307624 bohr
     new conv_thr            =       0.0000000100 Ry


ATOMIC_POSITIONS (alat)
Al       0.500000000   0.500000000  -2.124112833
Al       0.000000000   0.000000000  -1.417527188
Al       0.500000000   0.500000000  -0.704279833
Al       0.000000000   0.000000000   0.000000000
Al       0.500000000   0.500000000   0.704279833
Al       0.000000000   0.000000000   1.417527188
Al       0.500000000   0.500000000   2.124112833



     Writing output data file pwscf.save
     NEW-OLD atomic charge density approx. for the potential

     total cpu time spent up to now is       31.0 secs

     per-process dynamical memory:    21.5 Mb

     Self-consistent Calculation

     iteration #  1     ecut=    30.00 Ry     beta=0.30
     Davidson diagonalization with overlap
     ethr =  1.00E-06,  avg # of iterations =  3.1

     Threshold (ethr) on eigenvalues was too large:
     Diagonalizing with lowered threshold

     Davidson diagonalization with overlap
     ethr =  8.26E-08,  avg # of iterations =  2.8

     total cpu time spent up to now is       34.6 secs

     total energy              =     -28.99962621 Ry
     Harris-Foulkes estimate   =     -28.99963666 Ry
     estimated scf accuracy    <       0.00002286 Ry

     iteration #  2     ecut=    30.00 Ry     beta=0.30
     Davidson diagonalization with overlap
     ethr =  1.09E-07,  avg # of iterations =  2.9

     total cpu time spent up to now is       35.9 secs

     total energy              =     -28.99962074 Ry
     Harris-Foulkes estimate   =     -28.99963984 Ry
     estimated scf accuracy    <       0.00013871 Ry

     iteration #  3     ecut=    30.00 Ry     beta=0.30
     Davidson diagonalization with overlap
     ethr =  1.09E-07,  avg # of iterations =  2.6

     total cpu time spent up to now is       37.0 secs

     total energy              =     -28.99962950 Ry
     Harris-Foulkes estimate   =     -28.99963666 Ry
     estimated scf accuracy    <       0.00008024 Ry

     iteration #  4     ecut=    30.00 Ry     beta=0.30
     Davidson diagonalization with overlap
     ethr =  1.09E-07,  avg # of iterations =  2.0

     total cpu time spent up to now is       38.1 secs

     total energy              =     -28.99963309 Ry
     Harris-Foulkes estimate   =     -28.99963310 Ry
     estimated scf accuracy    <       0.00000032 Ry

     iteration #  5     ecut=    30.00 Ry     beta=0.30
     Davidson diagonalization with overlap
     ethr =  1.51E-09,  avg # of iterations =  2.4

     total cpu time spent up to now is       39.3 secs

     total energy              =     -28.99963316 Ry
     Harris-Foulkes estimate   =     -28.99963314 Ry
     estimated scf accuracy    <       0.00000007 Ry

     iteration #  6     ecut=    30.00 Ry     beta=0.30
     Davidson diagonalization with overlap
     ethr =  3.42E-10,  avg # of iterations =  1.4

     total cpu time spent up to now is       40.2 secs

     End of self-consistent calculation

          k = 0.0000 0.0000 0.0000 (  3463 PWs)   bands (ev):

    -7.6397  -7.1043  -6.2917  -5.1573  -3.7480  -2.0920  -0.1295   1.1567
     3.7515   5.7023   6.8607   8.4718   8.6210   8.8714   9.2632

          k = 0.0000 0.1667 0.0000 (  3465 PWs)   bands (ev):

    -7.1323  -6.5984  -5.7881  -4.6569  -3.2515  -1.6000   0.3592   1.6277
     4.1185   4.6524   4.9898   5.7679   6.2163   6.8522   7.3713

          k = 0.0000 0.3333 0.0000 (  3428 PWs)   bands (ev):

    -5.6201  -5.0906  -4.2877  -3.1664  -1.7735  -0.1430   0.2665   0.8042
     1.5584   1.8429   2.6277   3.0643   4.0169   5.6270   5.7012

          k = 0.0000-0.5000 0.0000 (  3442 PWs)   bands (ev):

    -3.1416  -3.1262  -2.6371  -2.5874  -1.8972  -1.7392  -0.7569  -0.6625
     0.5816   0.7473   2.1341   2.4329   3.9313   4.5942   5.1134

          k = 0.1667 0.1667 0.0000 (  3439 PWs)   bands (ev):

    -6.6266  -6.0941  -5.2863  -4.1583  -2.7568  -1.1098   0.8458   2.0987
     4.3792   4.6213   4.8768   5.6200   6.0640   6.1693   6.6735

          k = 0.1667 0.3333 0.0000 (  3433 PWs)   bands (ev):

    -5.1196  -4.5916  -3.7911  -2.6731  -1.2843   0.3405   0.7256   1.2621
     2.0141   2.3180   3.0796   3.5294   4.4586   6.0320   6.0599

          k = 0.1667-0.5000 0.0000 (  3442 PWs)   bands (ev):

    -2.6517  -2.6363  -2.1492  -2.0989  -1.4144  -1.2511  -0.2855  -0.1684
     1.0654   1.2212   2.6108   2.9014   4.3997   5.0495   5.5810

          k = 0.3333 0.3333 0.0000 (  3424 PWs)   bands (ev):

    -3.6299  -3.1063  -2.3137  -1.2060   0.1694   1.5747   1.7751   2.0720
     2.8171   2.9255   3.5681   3.8093   3.8733   4.3585   4.8548

          k = 0.3333-0.5000 0.0000 (  3412 PWs)   bands (ev):

    -1.2054  -1.1910  -0.7082  -0.6599   0.0154   0.1779   1.1135   1.2689
     2.4849   2.6082   3.9995   4.2521   4.7268   4.7644   5.2629

          k =-0.5000-0.5000 0.0000 (  3428 PWs)   bands (ev):

     0.6414   0.6414   1.1383   1.1383   1.8836   1.8836   1.9842   2.0237
     2.4532   2.5852   2.9399   2.9399   3.0901   3.5957   4.2223

     the Fermi energy is     3.4614 ev

!    total energy              =     -28.99963317 Ry
     Harris-Foulkes estimate   =     -28.99963317 Ry
     estimated scf accuracy    <          6.6E-09 Ry

     The total energy is the sum of the following terms:

     one-electron contribution =    -179.01208034 Ry
     hartree contribution      =      96.10314877 Ry
     xc contribution           =     -11.09467504 Ry
     ewald contribution        =      65.04497543 Ry
     smearing contrib. (-TS)   =      -0.04100200 Ry

     convergence has been achieved in   6 iterations

     Forces acting on atoms (Ry/au):

     atom    1 type  1   force =     0.00000000    0.00000000   -0.00339604
     atom    2 type  1   force =     0.00000000    0.00000000   -0.00275296
     atom    3 type  1   force =     0.00000000    0.00000000    0.00133693
     atom    4 type  1   force =     0.00000000    0.00000000    0.00000000
     atom    5 type  1   force =     0.00000000    0.00000000   -0.00133693
     atom    6 type  1   force =     0.00000000    0.00000000    0.00275296
     atom    7 type  1   force =     0.00000000    0.00000000    0.00339604

     Total force =     0.006465     Total SCF correction =     0.000108

     number of scf cycles    =   4
     number of bfgs steps    =   3

     energy   old            =     -28.9995092306 Ry
     energy   new            =     -28.9996331659 Ry

     CASE: energy  _new < energy  _old

     new trust radius        =       0.0117461436 bohr
     new conv_thr            =       0.0000000124 Ry


ATOMIC_POSITIONS (alat)
Al       0.500000000   0.500000000  -2.126300197
Al       0.000000000   0.000000000  -1.419666355
Al       0.500000000   0.500000000  -0.702811275
Al       0.000000000   0.000000000   0.000000000
Al       0.500000000   0.500000000   0.702811275
Al       0.000000000   0.000000000   1.419666355
Al       0.500000000   0.500000000   2.126300197



     Writing output data file pwscf.save
     NEW-OLD atomic charge density approx. for the potential

     total cpu time spent up to now is       41.1 secs

     per-process dynamical memory:    21.5 Mb

     Self-consistent Calculation

     iteration #  1     ecut=    30.00 Ry     beta=0.30
     Davidson diagonalization with overlap
     ethr =  1.00E-06,  avg # of iterations =  3.4

     total cpu time spent up to now is       42.9 secs

     total energy              =     -28.99975299 Ry
     Harris-Foulkes estimate   =     -28.99977365 Ry
     estimated scf accuracy    <       0.00004537 Ry

     iteration #  2     ecut=    30.00 Ry     beta=0.30
     Davidson diagonalization with overlap
     ethr =  2.16E-07,  avg # of iterations =  2.7

     total cpu time spent up to now is       44.3 secs

     total energy              =     -28.99974446 Ry
     Harris-Foulkes estimate   =     -28.99978107 Ry
     estimated scf accuracy    <       0.00025845 Ry

     iteration #  3     ecut=    30.00 Ry     beta=0.30
     Davidson diagonalization with overlap
     ethr =  2.16E-07,  avg # of iterations =  2.6

     total cpu time spent up to now is       45.5 secs

     total energy              =     -28.99976094 Ry
     Harris-Foulkes estimate   =     -28.99977573 Ry
     estimated scf accuracy    <       0.00016832 Ry

     iteration #  4     ecut=    30.00 Ry     beta=0.30
     Davidson diagonalization with overlap
     ethr =  2.16E-07,  avg # of iterations =  2.0

     total cpu time spent up to now is       46.7 secs

     total energy              =     -28.99976831 Ry
     Harris-Foulkes estimate   =     -28.99976832 Ry
     estimated scf accuracy    <       0.00000066 Ry

     iteration #  5     ecut=    30.00 Ry     beta=0.30
     Davidson diagonalization with overlap
     ethr =  3.14E-09,  avg # of iterations =  2.5

     total cpu time spent up to now is       47.9 secs

     total energy              =     -28.99976844 Ry
     Harris-Foulkes estimate   =     -28.99976841 Ry
     estimated scf accuracy    <       0.00000015 Ry

     iteration #  6     ecut=    30.00 Ry     beta=0.30
     Davidson diagonalization with overlap
     ethr =  7.31E-10,  avg # of iterations =  1.5

     total cpu time spent up to now is       49.0 secs

     total energy              =     -28.99976846 Ry
     Harris-Foulkes estimate   =     -28.99976846 Ry
     estimated scf accuracy    <       0.00000001 Ry

     iteration #  7     ecut=    30.00 Ry     beta=0.30
     Davidson diagonalization with overlap
     ethr =  7.03E-11,  avg # of iterations =  2.5

     total cpu time spent up to now is       50.6 secs

     End of self-consistent calculation

          k = 0.0000 0.0000 0.0000 (  3463 PWs)   bands (ev):

    -7.6344  -7.0866  -6.2931  -5.1567  -3.7404  -2.0954  -0.1339   1.1525
     3.7428   5.6910   6.8566   8.4668   8.6159   8.8768   9.2685

          k = 0.0000 0.1667 0.0000 (  3465 PWs)   bands (ev):

    -7.1271  -6.5807  -5.7895  -4.6564  -3.2440  -1.6034   0.3548   1.6235
     4.1139   4.6533   5.0082   5.7660   6.2047   6.8526   7.3676

          k = 0.0000 0.3333 0.0000 (  3428 PWs)   bands (ev):

    -5.6149  -5.0728  -4.2890  -3.1658  -1.7658  -0.1456   0.2719   0.8217
     1.5569   1.8388   2.6290   3.0592   4.0246   5.6234   5.6932

          k = 0.0000-0.5000 0.0000 (  3442 PWs)   bands (ev):

    -3.1371  -3.1201  -2.6183  -2.5701  -1.8982  -1.7409  -0.7561  -0.6623
     0.5890   0.7561   2.1329   2.4270   3.9258   4.5906   5.1095

          k = 0.1667 0.1667 0.0000 (  3439 PWs)   bands (ev):

    -6.6213  -6.0764  -5.2877  -4.1577  -2.7492  -1.1131   0.8415   2.0946
     4.3845   4.6145   4.8958   5.6181   6.0661   6.1807   6.6739

          k = 0.1667 0.3333 0.0000 (  3433 PWs)   bands (ev):

    -5.1144  -4.5737  -3.7924  -2.6724  -1.2765   0.3379   0.7310   1.2796
     2.0126   2.3139   3.0809   3.5245   4.4666   6.0273   6.0563

          k = 0.1667-0.5000 0.0000 (  3442 PWs)   bands (ev):

    -2.6472  -2.6302  -2.1305  -2.0816  -1.4154  -1.2528  -0.2847  -0.1680
     1.0729   1.2302   2.6097   2.8956   4.3943   5.0459   5.5773

          k = 0.3333 0.3333 0.0000 (  3424 PWs)   bands (ev):

    -3.6247  -3.0884  -2.3150  -1.2054   0.1773   1.5800   1.7728   2.0908
     2.8154   2.9308   3.5845   3.8055   3.8738   4.3575   4.8531

          k = 0.3333-0.5000 0.0000 (  3412 PWs)   bands (ev):

    -1.2009  -1.1849  -0.6893  -0.6424   0.0144   0.1763   1.1144   1.2693
     2.4928   2.6174   3.9986   4.2480   4.7310   4.7716   5.2817

          k =-0.5000-0.5000 0.0000 (  3428 PWs)   bands (ev):

     0.6467   0.6467   1.1571   1.1571   1.8819   1.8819   1.9876   2.0314
     2.4732   2.6013   2.9404   2.9404   3.0905   3.5941   4.2236

     the Fermi energy is     3.4617 ev

!    total energy              =     -28.99976846 Ry
     Harris-Foulkes estimate   =     -28.99976846 Ry
     estimated scf accuracy    <          3.1E-09 Ry

     The total energy is the sum of the following terms:

     one-electron contribution =    -178.42964738 Ry
     hartree contribution      =      95.81380319 Ry
     xc contribution           =     -11.09176842 Ry
     ewald contribution        =      64.74886405 Ry
     smearing contrib. (-TS)   =      -0.04101991 Ry

     convergence has been achieved in   7 iterations

     Forces acting on atoms (Ry/au):

     atom    1 type  1   force =     0.00000000    0.00000000   -0.00320536
     atom    2 type  1   force =     0.00000000    0.00000000   -0.00166579
     atom    3 type  1   force =     0.00000000    0.00000000   -0.00045123
     atom    4 type  1   force =     0.00000000    0.00000000    0.00000000
     atom    5 type  1   force =     0.00000000    0.00000000    0.00045123
     atom    6 type  1   force =     0.00000000    0.00000000    0.00166579
     atom    7 type  1   force =     0.00000000    0.00000000    0.00320536

     Total force =     0.005148     Total SCF correction =     0.000079

     number of scf cycles    =   5
     number of bfgs steps    =   4

     energy   old            =     -28.9996331659 Ry
     energy   new            =     -28.9997684610 Ry

     CASE: energy  _new < energy  _old

     new trust radius        =       0.0176192155 bohr
     new conv_thr            =       0.0000000135 Ry


ATOMIC_POSITIONS (alat)
Al       0.500000000   0.500000000  -2.129581243
Al       0.000000000   0.000000000  -1.422542991
Al       0.500000000   0.500000000  -0.701218719
Al       0.000000000   0.000000000   0.000000000
Al       0.500000000   0.500000000   0.701218719
Al       0.000000000   0.000000000   1.422542991
Al       0.500000000   0.500000000   2.129581243



     Writing output data file pwscf.save
     NEW-OLD atomic charge density approx. for the potential

     total cpu time spent up to now is       51.8 secs

     per-process dynamical memory:    22.0 Mb

     Self-consistent Calculation

     iteration #  1     ecut=    30.00 Ry     beta=0.30
     Davidson diagonalization with overlap
     ethr =  1.00E-06,  avg # of iterations =  4.0

     total cpu time spent up to now is       54.4 secs

     total energy              =     -28.99984070 Ry
     Harris-Foulkes estimate   =     -28.99989419 Ry
     estimated scf accuracy    <       0.00011403 Ry

     iteration #  2     ecut=    30.00 Ry     beta=0.30
     Davidson diagonalization with overlap
     ethr =  5.43E-07,  avg # of iterations =  3.0

     total cpu time spent up to now is       56.4 secs

     total energy              =     -28.99977849 Ry
     Harris-Foulkes estimate   =     -28.99996336 Ry
     estimated scf accuracy    <       0.00190450 Ry

     iteration #  3     ecut=    30.00 Ry     beta=0.30
     Davidson diagonalization with overlap
     ethr =  5.43E-07,  avg # of iterations =  2.7

     total cpu time spent up to now is       58.3 secs

     total energy              =     -28.99987485 Ry
     Harris-Foulkes estimate   =     -28.99988917 Ry
     estimated scf accuracy    <       0.00012742 Ry

     iteration #  4     ecut=    30.00 Ry     beta=0.30
     Davidson diagonalization with overlap
     ethr =  5.43E-07,  avg # of iterations =  1.3

     total cpu time spent up to now is       59.9 secs

     total energy              =     -28.99988184 Ry
     Harris-Foulkes estimate   =     -28.99988178 Ry
     estimated scf accuracy    <       0.00000102 Ry

     iteration #  5     ecut=    30.00 Ry     beta=0.30
     Davidson diagonalization with overlap
     ethr =  4.84E-09,  avg # of iterations =  3.2

     total cpu time spent up to now is       61.1 secs

     total energy              =     -28.99988213 Ry
     Harris-Foulkes estimate   =     -28.99988206 Ry
     estimated scf accuracy    <       0.00000035 Ry

     iteration #  6     ecut=    30.00 Ry     beta=0.30
     Davidson diagonalization with overlap
     ethr =  1.68E-09,  avg # of iterations =  2.1

     total cpu time spent up to now is       62.4 secs

     total energy              =     -28.99988217 Ry
     Harris-Foulkes estimate   =     -28.99988219 Ry
     estimated scf accuracy    <       0.00000015 Ry

     iteration #  7     ecut=    30.00 Ry     beta=0.30
     Davidson diagonalization with overlap
     ethr =  7.01E-10,  avg # of iterations =  1.4

     total cpu time spent up to now is       63.5 secs

     End of self-consistent calculation

          k = 0.0000 0.0000 0.0000 (  3463 PWs)   bands (ev):

    -7.6264  -7.0634  -6.2924  -5.1548  -3.7311  -2.1002  -0.1407   1.1461
     3.7295   5.6745   6.8499   8.4593   8.6076   8.8848   9.2763

          k = 0.0000 0.1667 0.0000 (  3465 PWs)   bands (ev):

    -7.1190  -6.5574  -5.7888  -4.6545  -3.2346  -1.6081   0.3481   1.6173
     4.1064   4.6550   5.0323   5.7664   6.1880   6.8544   7.3613

          k = 0.0000 0.3333 0.0000 (  3428 PWs)   bands (ev):

    -5.6068  -5.0494  -4.2883  -3.1637  -1.7563  -0.1494   0.2800   0.8447
     1.5573   1.8326   2.6319   3.0522   4.0341   5.6185   5.6807

          k = 0.0000-0.5000 0.0000 (  3442 PWs)   bands (ev):

    -3.1300  -3.1110  -2.5938  -2.5474  -1.8968  -1.7407  -0.7535  -0.6610
     0.5981   0.7671   2.1310   2.4193   3.9182   4.5843   5.1040

          k = 0.1667 0.1667 0.0000 (  3439 PWs)   bands (ev):

    -6.6133  -6.0531  -5.2869  -4.1558  -2.7397  -1.1177   0.8350   2.0885
     4.3925   4.6041   4.9208   5.6186   6.0696   6.1945   6.6760

          k = 0.1667 0.3333 0.0000 (  3433 PWs)   bands (ev):

    -5.1063  -4.5503  -3.7916  -2.6704  -1.2669   0.3342   0.7391   1.3027
     2.0131   2.3078   3.0837   3.5176   4.4766   6.0198   6.0513

          k = 0.1667-0.5000 0.0000 (  3442 PWs)   bands (ev):

    -2.6402  -2.6211  -2.1058  -2.0588  -1.4139  -1.2526  -0.2821  -0.1667
     1.0821   1.2413   2.6078   2.8881   4.3868   5.0398   5.5719

          k = 0.3333 0.3333 0.0000 (  3424 PWs)   bands (ev):

    -3.6167  -3.0648  -2.3141  -1.2032   0.1873   1.5879   1.7695   2.1155
     2.8160   2.9389   3.6062   3.7998   3.8759   4.3584   4.8500

          k = 0.3333-0.5000 0.0000 (  3412 PWs)   bands (ev):

    -1.1939  -1.1759  -0.6644  -0.6193   0.0159   0.1766   1.1170   1.2709
     2.5026   2.6288   3.9971   4.2425   4.7375   4.7820   5.3062

          k =-0.5000-0.5000 0.0000 (  3428 PWs)   bands (ev):

     0.6546   0.6546   1.1817   1.1817   1.8826   1.8826   1.9931   2.0426
     2.4996   2.6224   2.9425   2.9425   3.0938   3.5941   4.2271

     the Fermi energy is     3.4623 ev

!    total energy              =     -28.99988218 Ry
     Harris-Foulkes estimate   =     -28.99988218 Ry
     estimated scf accuracy    <          7.5E-09 Ry

     The total energy is the sum of the following terms:

     one-electron contribution =    -177.55875969 Ry
     hartree contribution      =      95.37993356 Ry
     xc contribution           =     -11.08743319 Ry
     ewald contribution        =      64.30745062 Ry
     smearing contrib. (-TS)   =      -0.04107348 Ry

     convergence has been achieved in   7 iterations

     Forces acting on atoms (Ry/au):

     atom    1 type  1   force =     0.00000000    0.00000000   -0.00284294
     atom    2 type  1   force =     0.00000000    0.00000000   -0.00046293
     atom    3 type  1   force =     0.00000000    0.00000000   -0.00256060
     atom    4 type  1   force =     0.00000000    0.00000000    0.00000000
     atom    5 type  1   force =     0.00000000    0.00000000    0.00256060
     atom    6 type  1   force =     0.00000000    0.00000000    0.00046293
     atom    7 type  1   force =     0.00000000    0.00000000    0.00284294

     Total force =     0.005450     Total SCF correction =     0.000096

     number of scf cycles    =   6
     number of bfgs steps    =   5

     energy   old            =     -28.9997684610 Ry
     energy   new            =     -28.9998821813 Ry

     CASE: energy  _new < energy  _old

     new trust radius        =       0.0195981969 bohr
     new conv_thr            =       0.0000000114 Ry


ATOMIC_POSITIONS (alat)
Al       0.500000000   0.500000000  -2.133230814
Al       0.000000000   0.000000000  -1.425326699
Al       0.500000000   0.500000000  -0.700312963
Al       0.000000000   0.000000000   0.000000000
Al       0.500000000   0.500000000   0.700312963
Al       0.000000000   0.000000000   1.425326699
Al       0.500000000   0.500000000   2.133230814



     Writing output data file pwscf.save
     NEW-OLD atomic charge density approx. for the potential

     total cpu time spent up to now is       64.4 secs

     per-process dynamical memory:    22.0 Mb

     Self-consistent Calculation

     iteration #  1     ecut=    30.00 Ry     beta=0.30
     Davidson diagonalization with overlap
     ethr =  1.00E-06,  avg # of iterations =  4.0

     total cpu time spent up to now is       66.2 secs

     total energy              =     -28.99992145 Ry
     Harris-Foulkes estimate   =     -28.99996222 Ry
     estimated scf accuracy    <       0.00008800 Ry

     iteration #  2     ecut=    30.00 Ry     beta=0.30
     Davidson diagonalization with overlap
     ethr =  4.19E-07,  avg # of iterations =  3.0

     total cpu time spent up to now is       67.5 secs

     total energy              =     -28.99987538 Ry
     Harris-Foulkes estimate   =     -29.00001361 Ry
     estimated scf accuracy    <       0.00140163 Ry

     iteration #  3     ecut=    30.00 Ry     beta=0.30
     Davidson diagonalization with overlap
     ethr =  4.19E-07,  avg # of iterations =  2.7

     total cpu time spent up to now is       68.8 secs

     total energy              =     -28.99994719 Ry
     Harris-Foulkes estimate   =     -28.99995952 Ry
     estimated scf accuracy    <       0.00011263 Ry

     iteration #  4     ecut=    30.00 Ry     beta=0.30
     Davidson diagonalization with overlap
     ethr =  4.19E-07,  avg # of iterations =  1.5

     total cpu time spent up to now is       69.9 secs

     total energy              =     -28.99995318 Ry
     Harris-Foulkes estimate   =     -28.99995311 Ry
     estimated scf accuracy    <       0.00000104 Ry

     iteration #  5     ecut=    30.00 Ry     beta=0.30
     Davidson diagonalization with overlap
     ethr =  4.95E-09,  avg # of iterations =  3.2

     total cpu time spent up to now is       71.0 secs

     total energy              =     -28.99995342 Ry
     Harris-Foulkes estimate   =     -28.99995338 Ry
     estimated scf accuracy    <       0.00000030 Ry

     iteration #  6     ecut=    30.00 Ry     beta=0.30
     Davidson diagonalization with overlap
     ethr =  1.43E-09,  avg # of iterations =  2.2

     total cpu time spent up to now is       72.1 secs

     total energy              =     -28.99995346 Ry
     Harris-Foulkes estimate   =     -28.99995347 Ry
     estimated scf accuracy    <       0.00000010 Ry

     iteration #  7     ecut=    30.00 Ry     beta=0.30
     Davidson diagonalization with overlap
     ethr =  4.92E-10,  avg # of iterations =  1.2

     total cpu time spent up to now is       73.1 secs

     total energy              =     -28.99995346 Ry
     Harris-Foulkes estimate   =     -28.99995346 Ry
     estimated scf accuracy    <       0.00000001 Ry

     iteration #  8     ecut=    30.00 Ry     beta=0.30
     Davidson diagonalization with overlap
     ethr =  5.68E-11,  avg # of iterations =  3.0

     total cpu time spent up to now is       74.7 secs

     total energy              =     -28.99995346 Ry
     Harris-Foulkes estimate   =     -28.99995347 Ry
     estimated scf accuracy    <       0.00000002 Ry

     iteration #  9     ecut=    30.00 Ry     beta=0.30
     Davidson diagonalization with overlap
     ethr =  5.68E-11,  avg # of iterations =  2.4

     total cpu time spent up to now is       76.4 secs

     total energy              =     -28.99995347 Ry
     Harris-Foulkes estimate   =     -28.99995347 Ry
     estimated scf accuracy    <       0.00000001 Ry

     iteration # 10     ecut=    30.00 Ry     beta=0.30
     Davidson diagonalization with overlap
     ethr =  5.68E-11,  avg # of iterations =  1.9

     total cpu time spent up to now is       77.9 secs

     End of self-consistent calculation

          k = 0.0000 0.0000 0.0000 (  3463 PWs)   bands (ev):

    -7.6168  -7.0416  -6.2880  -5.1513  -3.7235  -2.1050  -0.1483   1.1390
     3.7145   5.6570   6.8425   8.4517   8.5983   8.8945   9.2859

          k = 0.0000 0.1667 0.0000 (  3465 PWs)   bands (ev):

    -7.1094  -6.5357  -5.7844  -4.6509  -3.2269  -1.6127   0.3407   1.6103
     4.0977   4.6579   5.0547   5.7709   6.1706   6.8580   7.3541

          k = 0.0000 0.3333 0.0000 (  3428 PWs)   bands (ev):

    -5.5972  -5.0276  -4.2837  -3.1601  -1.7484  -0.1533   0.2899   0.8662
     1.5613   1.8260   2.6360   3.0450   4.0419   5.6137   5.6662

          k = 0.0000-0.5000 0.0000 (  3442 PWs)   bands (ev):

    -3.1212  -3.1006  -2.5708  -2.5263  -1.8915  -1.7367  -0.7487  -0.6584
     0.6055   0.7763   2.1288   2.4124   3.9107   4.5764   5.0982

          k = 0.1667 0.1667 0.0000 (  3439 PWs)   bands (ev):

    -6.6037  -6.0313  -5.2824  -4.1522  -2.7320  -1.1222   0.8277   2.0817
     4.4021   4.5923   4.9441   5.6234   6.0743   6.2058   6.6801

          k = 0.1667 0.3333 0.0000 (  3433 PWs)   bands (ev):

    -5.0967  -4.5284  -3.7871  -2.6667  -1.2590   0.3306   0.7489   1.3243
     2.0174   2.3012   3.0879   3.5106   4.4849   6.0110   6.0465

          k = 0.1667-0.5000 0.0000 (  3442 PWs)   bands (ev):

    -2.6313  -2.6107  -2.0828  -2.0376  -1.4085  -1.2486  -0.2773  -0.1640
     1.0896   1.2505   2.6055   2.8813   4.3795   5.0320   5.5662

          k = 0.3333 0.3333 0.0000 (  3424 PWs)   bands (ev):

    -3.6070  -3.0428  -2.3094  -1.1994   0.1955   1.5975   1.7662   2.1386
     2.8209   2.9485   3.6264   3.7934   3.8800   4.3627   4.8461

          k = 0.3333-0.5000 0.0000 (  3412 PWs)   bands (ev):

    -1.1849  -1.1655  -0.6413  -0.5978   0.0215   0.1808   1.1218   1.2738
     2.5107   2.6384   3.9954   4.2374   4.7460   4.7936   5.3291

          k =-0.5000-0.5000 0.0000 (  3428 PWs)   bands (ev):

     0.6642   0.6642   1.2046   1.2046   1.8875   1.8875   2.0009   2.0546
     2.5242   2.6422   2.9466   2.9466   3.1011   3.5975   4.2331

     the Fermi energy is     3.4632 ev

!    total energy              =     -28.99995347 Ry
     Harris-Foulkes estimate   =     -28.99995347 Ry
     estimated scf accuracy    <          4.7E-11 Ry

     The total energy is the sum of the following terms:

     one-electron contribution =    -176.59107907 Ry
     hartree contribution      =      94.89839817 Ry
     xc contribution           =     -11.08259363 Ry
     ewald contribution        =      63.81648582 Ry
     smearing contrib. (-TS)   =      -0.04116476 Ry

     convergence has been achieved in  10 iterations

     Forces acting on atoms (Ry/au):

     atom    1 type  1   force =     0.00000000    0.00000000   -0.00236482
     atom    2 type  1   force =     0.00000000    0.00000000    0.00035142
     atom    3 type  1   force =     0.00000000    0.00000000   -0.00411943
     atom    4 type  1   force =     0.00000000    0.00000000    0.00000000
     atom    5 type  1   force =     0.00000000    0.00000000    0.00411943
     atom    6 type  1   force =     0.00000000    0.00000000   -0.00035142
     atom    7 type  1   force =     0.00000000    0.00000000    0.00236482

     Total force =     0.006736     Total SCF correction =     0.000011

     number of scf cycles    =   7
     number of bfgs steps    =   6

     energy   old            =     -28.9998821813 Ry
     energy   new            =     -28.9999534682 Ry

     CASE: energy  _new < energy  _old

     new trust radius        =       0.0212800518 bohr
     new conv_thr            =       0.0000000100 Ry


ATOMIC_POSITIONS (alat)
Al       0.500000000   0.500000000  -2.137193580
Al       0.000000000   0.000000000  -1.427916205
Al       0.500000000   0.500000000  -0.700365814
Al       0.000000000   0.000000000   0.000000000
Al       0.500000000   0.500000000   0.700365814
Al       0.000000000   0.000000000   1.427916205
Al       0.500000000   0.500000000   2.137193580



     Writing output data file pwscf.save
     NEW-OLD atomic charge density approx. for the potential

     total cpu time spent up to now is       79.2 secs

     per-process dynamical memory:    17.2 Mb

     Self-consistent Calculation

     iteration #  1     ecut=    30.00 Ry     beta=0.30
     Davidson diagonalization with overlap
     ethr =  1.00E-06,  avg # of iterations =  3.9

     total cpu time spent up to now is       82.2 secs

     total energy              =     -28.99999274 Ry
     Harris-Foulkes estimate   =     -29.00003558 Ry
     estimated scf accuracy    <       0.00009128 Ry

     iteration #  2     ecut=    30.00 Ry     beta=0.30
     Davidson diagonalization with overlap
     ethr =  4.35E-07,  avg # of iterations =  3.2

     total cpu time spent up to now is       83.8 secs

     total energy              =     -28.99992118 Ry
     Harris-Foulkes estimate   =     -29.00012867 Ry
     estimated scf accuracy    <       0.00242565 Ry

     iteration #  3     ecut=    30.00 Ry     beta=0.30
     Davidson diagonalization with overlap
     ethr =  4.35E-07,  avg # of iterations =  2.9

     total cpu time spent up to now is       85.0 secs

     total energy              =     -29.00002677 Ry
     Harris-Foulkes estimate   =     -29.00003160 Ry
     estimated scf accuracy    <       0.00003365 Ry

     iteration #  4     ecut=    30.00 Ry     beta=0.30
     Davidson diagonalization with overlap
     ethr =  1.60E-07,  avg # of iterations =  1.3

     total cpu time spent up to now is       86.0 secs

     total energy              =     -29.00002926 Ry
     Harris-Foulkes estimate   =     -29.00002908 Ry
     estimated scf accuracy    <       0.00000112 Ry

     iteration #  5     ecut=    30.00 Ry     beta=0.30
     Davidson diagonalization with overlap
     ethr =  5.33E-09,  avg # of iterations =  2.9

     total cpu time spent up to now is       87.4 secs

     total energy              =     -29.00002942 Ry
     Harris-Foulkes estimate   =     -29.00002946 Ry
     estimated scf accuracy    <       0.00000025 Ry

     iteration #  6     ecut=    30.00 Ry     beta=0.30
     Davidson diagonalization with overlap
     ethr =  1.20E-09,  avg # of iterations =  1.7

     total cpu time spent up to now is       88.5 secs

     total energy              =     -29.00002946 Ry
     Harris-Foulkes estimate   =     -29.00002945 Ry
     estimated scf accuracy    <       0.00000001 Ry

     iteration #  7     ecut=    30.00 Ry     beta=0.30
     Davidson diagonalization with overlap
     ethr =  6.46E-11,  avg # of iterations =  3.1

     total cpu time spent up to now is       89.9 secs

     total energy              =     -29.00002946 Ry
     Harris-Foulkes estimate   =     -29.00002946 Ry
     estimated scf accuracy    <       0.00000003 Ry

     iteration #  8     ecut=    30.00 Ry     beta=0.30
     Davidson diagonalization with overlap
     ethr =  6.46E-11,  avg # of iterations =  2.6

     total cpu time spent up to now is       91.1 secs

     total energy              =     -29.00002946 Ry
     Harris-Foulkes estimate   =     -29.00002947 Ry
     estimated scf accuracy    <       0.00000003 Ry

     iteration #  9     ecut=    30.00 Ry     beta=0.30
     Davidson diagonalization with overlap
     ethr =  6.46E-11,  avg # of iterations =  2.2

     total cpu time spent up to now is       92.3 secs

     End of self-consistent calculation

          k = 0.0000 0.0000 0.0000 (  3463 PWs)   bands (ev):

    -7.6047  -7.0229  -6.2794  -5.1458  -3.7186  -2.1095  -0.1565   1.1313
     3.6980   5.6389   6.8339   8.4440   8.5875   8.9070   9.2985

          k = 0.0000 0.1667 0.0000 (  3465 PWs)   bands (ev):

    -7.0973  -6.5169  -5.7758  -4.6454  -3.2220  -1.6171   0.3326   1.6027
     4.0880   4.6629   5.0739   5.7800   6.1529   6.8638   7.3456

          k = 0.0000 0.3333 0.0000 (  3428 PWs)   bands (ev):

    -5.5851  -5.0087  -4.2750  -3.1545  -1.7433  -0.1570   0.3022   0.8848
     1.5692   1.8191   2.6416   3.0381   4.0471   5.6093   5.6498

          k = 0.0000-0.5000 0.0000 (  3442 PWs)   bands (ev):

    -3.1094  -3.0881  -2.5510  -2.5080  -1.8818  -1.7286  -0.7415  -0.6543
     0.6103   0.7823   2.1261   2.4068   3.9037   4.5668   5.0922

          k = 0.1667 0.1667 0.0000 (  3439 PWs)   bands (ev):

    -6.5916  -6.0125  -5.2738  -4.1467  -2.7270  -1.1266   0.8197   2.0741
     4.4145   4.5794   4.9642   5.6330   6.0811   6.2136   6.6866

          k = 0.1667 0.3333 0.0000 (  3433 PWs)   bands (ev):

    -5.0846  -4.5095  -3.7783  -2.6610  -1.2537   0.3270   0.7613   1.3430
     2.0257   2.2941   3.0936   3.5037   4.4904   6.0011   6.0420

          k = 0.1667-0.5000 0.0000 (  3442 PWs)   bands (ev):

    -2.6195  -2.5982  -2.0629  -2.0192  -1.3988  -1.2404  -0.2700  -0.1599
     1.0945   1.2567   2.6029   2.8758   4.3726   5.0225   5.5603

          k = 0.3333 0.3333 0.0000 (  3424 PWs)   bands (ev):

    -3.5949  -3.0238  -2.3005  -1.1936   0.2010   1.6098   1.7630   2.1585
     2.8305   2.9602   3.6439   3.7864   3.8865   4.3709   4.8411

          k = 0.3333-0.5000 0.0000 (  3412 PWs)   bands (ev):

    -1.1731  -1.1530  -0.6212  -0.5792   0.0313   0.1893   1.1292   1.2783
     2.5160   2.6449   3.9935   4.2330   4.7578   4.8068   5.3487

          k =-0.5000-0.5000 0.0000 (  3428 PWs)   bands (ev):

     0.6764   0.6764   1.2245   1.2245   1.8971   1.8971   2.0122   2.0679
     2.5453   2.6594   2.9531   2.9531   3.1124   3.6047   4.2420

     the Fermi energy is     3.4645 ev

!    total energy              =     -29.00002946 Ry
     Harris-Foulkes estimate   =     -29.00002946 Ry
     estimated scf accuracy    <          1.5E-10 Ry

     The total energy is the sum of the following terms:

     one-electron contribution =    -175.53099204 Ry
     hartree contribution      =      94.37057778 Ry
     xc contribution           =     -11.07727315 Ry
     ewald contribution        =      63.27895523 Ry
     smearing contrib. (-TS)   =      -0.04129729 Ry

     convergence has been achieved in   9 iterations

     Forces acting on atoms (Ry/au):

     atom    1 type  1   force =     0.00000000    0.00000000   -0.00176008
     atom    2 type  1   force =     0.00000000    0.00000000    0.00067994
     atom    3 type  1   force =     0.00000000    0.00000000   -0.00492764
     atom    4 type  1   force =     0.00000000    0.00000000    0.00000000
     atom    5 type  1   force =     0.00000000    0.00000000    0.00492764
     atom    6 type  1   force =     0.00000000    0.00000000   -0.00067994
     atom    7 type  1   force =     0.00000000    0.00000000    0.00176008

     Total force =     0.007462     Total SCF correction =     0.000019

     number of scf cycles    =   8
     number of bfgs steps    =   7

     energy   old            =     -28.9999534682 Ry
     energy   new            =     -29.0000294632 Ry

     CASE: energy  _new < energy  _old

     new trust radius        =       0.0319200777 bohr
     new conv_thr            =       0.0000000100 Ry


ATOMIC_POSITIONS (alat)
Al       0.500000000   0.500000000  -2.143137728
Al       0.000000000   0.000000000  -1.431406538
Al       0.500000000   0.500000000  -0.701628048
Al       0.000000000   0.000000000   0.000000000
Al       0.500000000   0.500000000   0.701628048
Al       0.000000000   0.000000000   1.431406538
Al       0.500000000   0.500000000   2.143137728



     Writing output data file pwscf.save
     NEW-OLD atomic charge density approx. for the potential

     total cpu time spent up to now is       93.4 secs

     per-process dynamical memory:    17.2 Mb

     Self-consistent Calculation

     iteration #  1     ecut=    30.00 Ry     beta=0.30
     Davidson diagonalization with overlap
     ethr =  1.00E-06,  avg # of iterations =  4.3

     total cpu time spent up to now is       95.4 secs

     total energy              =     -29.00008434 Ry
     Harris-Foulkes estimate   =     -29.00016540 Ry
     estimated scf accuracy    <       0.00017393 Ry

     iteration #  2     ecut=    30.00 Ry     beta=0.30
     Davidson diagonalization with overlap
     ethr =  8.28E-07,  avg # of iterations =  3.2

     total cpu time spent up to now is       96.7 secs

     total energy              =     -28.99993176 Ry
     Harris-Foulkes estimate   =     -29.00036747 Ry
     estimated scf accuracy    <       0.00526773 Ry

     iteration #  3     ecut=    30.00 Ry     beta=0.30
     Davidson diagonalization with overlap
     ethr =  8.28E-07,  avg # of iterations =  3.1

     total cpu time spent up to now is       98.2 secs

     total energy              =     -29.00015191 Ry
     Harris-Foulkes estimate   =     -29.00015722 Ry
     estimated scf accuracy    <       0.00003590 Ry

     iteration #  4     ecut=    30.00 Ry     beta=0.30
     Davidson diagonalization with overlap
     ethr =  1.71E-07,  avg # of iterations =  1.4

     total cpu time spent up to now is      100.0 secs

     total energy              =     -29.00015472 Ry
     Harris-Foulkes estimate   =     -29.00015458 Ry
     estimated scf accuracy    <       0.00000266 Ry

     iteration #  5     ecut=    30.00 Ry     beta=0.30
     Davidson diagonalization with overlap
     ethr =  1.27E-08,  avg # of iterations =  2.5

     total cpu time spent up to now is      101.8 secs

     total energy              =     -29.00015506 Ry
     Harris-Foulkes estimate   =     -29.00015498 Ry
     estimated scf accuracy    <       0.00000040 Ry

     iteration #  6     ecut=    30.00 Ry     beta=0.30
     Davidson diagonalization with overlap
     ethr =  1.91E-09,  avg # of iterations =  1.8

     total cpu time spent up to now is      103.8 secs

     total energy              =     -29.00015512 Ry
     Harris-Foulkes estimate   =     -29.00015510 Ry
     estimated scf accuracy    <       0.00000007 Ry

     iteration #  7     ecut=    30.00 Ry     beta=0.30
     Davidson diagonalization with overlap
     ethr =  3.48E-10,  avg # of iterations =  2.5

     total cpu time spent up to now is      106.6 secs

     total energy              =     -29.00015513 Ry
     Harris-Foulkes estimate   =     -29.00015514 Ry
     estimated scf accuracy    <       0.00000007 Ry

     iteration #  8     ecut=    30.00 Ry     beta=0.30
     Davidson diagonalization with overlap
     ethr =  3.35E-10,  avg # of iterations =  2.1

     total cpu time spent up to now is      108.3 secs

     total energy              =     -29.00015514 Ry
     Harris-Foulkes estimate   =     -29.00015514 Ry
     estimated scf accuracy    <       0.00000004 Ry

     iteration #  9     ecut=    30.00 Ry     beta=0.30
     Davidson diagonalization with overlap
     ethr =  1.91E-10,  avg # of iterations =  1.0

     total cpu time spent up to now is      109.3 secs

     End of self-consistent calculation

          k = 0.0000 0.0000 0.0000 (  3463 PWs)   bands (ev):

    -7.5844  -7.0000  -6.2627  -5.1360  -3.7150  -2.1155  -0.1689   1.1195
     3.6730   5.6129   6.8206   8.4334   8.5710   8.9283   9.3202

          k = 0.0000 0.1667 0.0000 (  3465 PWs)   bands (ev):

    -7.0770  -6.4939  -5.7591  -4.6355  -3.2183  -1.6230   0.3205   1.5912
     4.0728   4.6735   5.0972   5.7979   6.1279   6.8743   7.3322

          k = 0.0000 0.3333 0.0000 (  3428 PWs)   bands (ev):

    -5.5647  -4.9857  -4.2581  -3.1444  -1.7392  -0.1620   0.3231   0.9076
     1.5843   1.8093   2.6510   3.0286   4.0514   5.6036   5.6244

          k = 0.0000-0.5000 0.0000 (  3442 PWs)   bands (ev):

    -3.0887  -3.0676  -2.5269  -2.4855  -1.8635  -1.7126  -0.7284  -0.6468
     0.6138   0.7872   2.1219   2.4003   3.8943   4.5512   5.0834

          k = 0.1667 0.1667 0.0000 (  3439 PWs)   bands (ev):

    -6.5712  -5.9895  -5.2570  -4.1367  -2.7232  -1.1323   0.8078   2.0628
     4.4359   4.5598   4.9888   5.6518   6.0937   6.2201   6.6985

          k = 0.1667 0.3333 0.0000 (  3433 PWs)   bands (ev):

    -5.0642  -4.4865  -3.7614  -2.6508  -1.2496   0.3222   0.7823   1.3658
     2.0417   2.2839   3.1034   3.4942   4.4948   5.9855   6.0364

          k = 0.1667-0.5000 0.0000 (  3442 PWs)   bands (ev):

    -2.5989  -2.5777  -2.0387  -1.9967  -1.3804  -1.2243  -0.2569  -0.1523
     1.0981   1.2617   2.5987   2.8695   4.3634   5.0072   5.5517

          k = 0.3333 0.3333 0.0000 (  3424 PWs)   bands (ev):

    -3.5744  -3.0006  -2.2834  -1.1831   0.2056   1.6310   1.7588   2.1829
     2.8491   2.9799   3.6652   3.7759   3.8984   4.3866   4.8329

          k = 0.3333-0.5000 0.0000 (  3412 PWs)   bands (ev):

    -1.1523  -1.1323  -0.5969  -0.5564   0.0500   0.2059   1.1424   1.2866
     2.5202   2.6503   3.9905   4.2281   4.7789   4.8278   5.3726

          k =-0.5000-0.5000 0.0000 (  3428 PWs)   bands (ev):

     0.6975   0.6975   1.2487   1.2487   1.9156   1.9156   2.0331   2.0886
     2.5710   2.6808   2.9649   2.9649   3.1328   3.6190   4.2577

     the Fermi energy is     3.4668 ev

!    total energy              =     -29.00015513 Ry
     Harris-Foulkes estimate   =     -29.00015514 Ry
     estimated scf accuracy    <          7.0E-09 Ry

     The total energy is the sum of the following terms:

     one-electron contribution =    -173.92130699 Ry
     hartree contribution      =      93.56960055 Ry
     xc contribution           =     -11.06920292 Ry
     ewald contribution        =      62.46228817 Ry
     smearing contrib. (-TS)   =      -0.04153394 Ry

     convergence has been achieved in   9 iterations

     Forces acting on atoms (Ry/au):

     atom    1 type  1   force =     0.00000000    0.00000000   -0.00080451
     atom    2 type  1   force =     0.00000000    0.00000000    0.00063411
     atom    3 type  1   force =     0.00000000    0.00000000   -0.00517347
     atom    4 type  1   force =     0.00000000    0.00000000    0.00000000
     atom    5 type  1   force =     0.00000000    0.00000000    0.00517347
     atom    6 type  1   force =     0.00000000    0.00000000   -0.00063411
     atom    7 type  1   force =     0.00000000    0.00000000    0.00080451

     Total force =     0.007458     Total SCF correction =     0.000148

     number of scf cycles    =   9
     number of bfgs steps    =   8

     energy   old            =     -29.0000294632 Ry
     energy   new            =     -29.0001551342 Ry

     CASE: energy  _new < energy  _old

     new trust radius        =       0.0478801165 bohr
     new conv_thr            =       0.0000000126 Ry


ATOMIC_POSITIONS (alat)
Al       0.500000000   0.500000000  -2.152053951
Al       0.000000000   0.000000000  -1.436254109
Al       0.500000000   0.500000000  -0.705208145
Al       0.000000000   0.000000000   0.000000000
Al       0.500000000   0.500000000   0.705208145
Al       0.000000000   0.000000000   1.436254109
Al       0.500000000   0.500000000   2.152053951



     Writing output data file pwscf.save
     NEW-OLD atomic charge density approx. for the potential

     negative rho (up, down):  1.045E-06 0.000E+00

     total cpu time spent up to now is      110.3 secs

     per-process dynamical memory:    17.2 Mb

     Self-consistent Calculation

     iteration #  1     ecut=    30.00 Ry     beta=0.30
     Davidson diagonalization with overlap
     ethr =  1.00E-06,  avg # of iterations =  4.9

     negative rho (up, down):  2.209E-07 0.000E+00

     total cpu time spent up to now is      112.5 secs

     total energy              =     -29.00011994 Ry
     Harris-Foulkes estimate   =     -29.00035691 Ry
     estimated scf accuracy    <       0.00050100 Ry

     iteration #  2     ecut=    30.00 Ry     beta=0.30
     Davidson diagonalization with overlap
     ethr =  2.39E-06,  avg # of iterations =  3.3

     negative rho (up, down):  1.895E-07 0.000E+00

     total cpu time spent up to now is      114.0 secs

     total energy              =     -28.99962251 Ry
     Harris-Foulkes estimate   =     -29.00103588 Ry
     estimated scf accuracy    <       0.01779829 Ry

     iteration #  3     ecut=    30.00 Ry     beta=0.30
     Davidson diagonalization with overlap
     ethr =  2.39E-06,  avg # of iterations =  3.4

     negative rho (up, down):  3.956E-08 0.000E+00

     total cpu time spent up to now is      115.8 secs

     total energy              =     -29.00032600 Ry
     Harris-Foulkes estimate   =     -29.00033115 Ry
     estimated scf accuracy    <       0.00003235 Ry

     iteration #  4     ecut=    30.00 Ry     beta=0.30
     Davidson diagonalization with overlap
     ethr =  1.54E-07,  avg # of iterations =  1.8

     total cpu time spent up to now is      117.3 secs

     total energy              =     -29.00032913 Ry
     Harris-Foulkes estimate   =     -29.00032944 Ry
     estimated scf accuracy    <       0.00000716 Ry

     iteration #  5     ecut=    30.00 Ry     beta=0.30
     Davidson diagonalization with overlap
     ethr =  3.41E-08,  avg # of iterations =  1.3

     total cpu time spent up to now is      118.3 secs

     total energy              =     -29.00032995 Ry
     Harris-Foulkes estimate   =     -29.00032957 Ry
     estimated scf accuracy    <       0.00000110 Ry

     iteration #  6     ecut=    30.00 Ry     beta=0.30
     Davidson diagonalization with overlap
     ethr =  5.25E-09,  avg # of iterations =  2.5

     total cpu time spent up to now is      120.1 secs

     total energy              =     -29.00033009 Ry
     Harris-Foulkes estimate   =     -29.00033013 Ry
     estimated scf accuracy    <       0.00000024 Ry

     iteration #  7     ecut=    30.00 Ry     beta=0.30
     Davidson diagonalization with overlap
     ethr =  1.17E-09,  avg # of iterations =  3.0

     total cpu time spent up to now is      121.4 secs

     total energy              =     -29.00033005 Ry
     Harris-Foulkes estimate   =     -29.00033030 Ry
     estimated scf accuracy    <       0.00000089 Ry

     iteration #  8     ecut=    30.00 Ry     beta=0.30
     Davidson diagonalization with overlap
     ethr =  1.17E-09,  avg # of iterations =  2.2

     total cpu time spent up to now is      122.4 secs

     total energy              =     -29.00033018 Ry
     Harris-Foulkes estimate   =     -29.00033019 Ry
     estimated scf accuracy    <       0.00000003 Ry

     iteration #  9     ecut=    30.00 Ry     beta=0.30
     Davidson diagonalization with overlap
     ethr =  1.38E-10,  avg # of iterations =  2.0

     total cpu time spent up to now is      124.8 secs

     End of self-consistent calculation

          k = 0.0000 0.0000 0.0000 (  3463 PWs)   bands (ev):

    -7.5500  -6.9732  -6.2334  -5.1193  -3.7146  -2.1234  -0.1874   1.1019
     3.6348   5.5757   6.7998   8.4186   8.5454   8.9646   9.3578

          k = 0.0000 0.1667 0.0000 (  3465 PWs)   bands (ev):

    -7.0426  -6.4671  -5.7297  -4.6188  -3.2178  -1.6307   0.3023   1.5738
     4.0479   4.6951   5.1242   5.8294   6.0924   6.8923   7.3111

          k = 0.0000 0.3333 0.0000 (  3428 PWs)   bands (ev):

    -5.5303  -4.9588  -4.2286  -3.1273  -1.7382  -0.1685   0.3585   0.9342
     1.6097   1.7962   2.6658   3.0159   4.0528   5.5848   5.5964

          k = 0.0000-0.5000 0.0000 (  3442 PWs)   bands (ev):

    -3.0531  -3.0337  -2.4989  -2.4589  -1.8317  -1.6844  -0.7063  -0.6341
     0.6144   0.7886   2.1155   2.3936   3.8816   4.5264   5.0704

          k = 0.1667 0.1667 0.0000 (  3439 PWs)   bands (ev):

    -6.5368  -5.9627  -5.2276  -4.1198  -2.7225  -1.1398   0.7899   2.0457
     4.4724   4.5296   5.0177   5.6848   6.1169   6.2221   6.7189

          k = 0.1667 0.3333 0.0000 (  3433 PWs)   bands (ev):

    -5.0297  -4.4595  -3.7317  -2.6336  -1.2484   0.3159   0.8177   1.3926
     2.0688   2.2697   3.1191   3.4811   4.4963   5.9601   6.0294

          k = 0.1667-0.5000 0.0000 (  3442 PWs)   bands (ev):

    -2.5632  -2.5437  -2.0106  -1.9701  -1.3485  -1.1958  -0.2347  -0.1394
     1.0988   1.2632   2.5925   2.8629   4.3510   4.9828   5.5391

          k = 0.3333 0.3333 0.0000 (  3424 PWs)   bands (ev):

    -3.5397  -2.9734  -2.2534  -1.1654   0.2074   1.6671   1.7534   2.2115
     2.8816   3.0125   3.6901   3.7603   3.9186   4.4141   4.8195

          k = 0.3333-0.5000 0.0000 (  3412 PWs)   bands (ev):

    -1.1164  -1.0980  -0.5685  -0.5294   0.0822   0.2351   1.1649   1.3006
     2.5216   2.6525   3.9861   4.2229   4.8157   4.8618   5.4000

          k =-0.5000-0.5000 0.0000 (  3428 PWs)   bands (ev):

     0.7335   0.7335   1.2772   1.2772   1.9480   1.9480   2.0703   2.1213
     2.6004   2.7068   2.9851   2.9851   3.1670   3.6441   4.2841

     the Fermi energy is     3.4705 ev

!    total energy              =     -29.00033019 Ry
     Harris-Foulkes estimate   =     -29.00033019 Ry
     estimated scf accuracy    <          8.3E-10 Ry

     The total energy is the sum of the following terms:

     one-electron contribution =    -171.45817331 Ry
     hartree contribution      =      92.34266147 Ry
     xc contribution           =     -11.05698321 Ry
     ewald contribution        =      61.21411270 Ry
     smearing contrib. (-TS)   =      -0.04194783 Ry

     convergence has been achieved in   9 iterations

     Forces acting on atoms (Ry/au):

     atom    1 type  1   force =     0.00000000    0.00000000    0.00062554
     atom    2 type  1   force =     0.00000000    0.00000000   -0.00007028
     atom    3 type  1   force =     0.00000000    0.00000000   -0.00426504
     atom    4 type  1   force =     0.00000000    0.00000000    0.00000000
     atom    5 type  1   force =     0.00000000    0.00000000    0.00426504
     atom    6 type  1   force =     0.00000000    0.00000000    0.00007028
     atom    7 type  1   force =     0.00000000    0.00000000   -0.00062554

     Total force =     0.006097     Total SCF correction =     0.000039

     number of scf cycles    =  10
     number of bfgs steps    =   9

     energy   old            =     -29.0001551342 Ry
     energy   new            =     -29.0003301870 Ry

     CASE: energy  _new < energy  _old

     new trust radius        =       0.0308990134 bohr
     new conv_thr            =       0.0000000175 Ry


ATOMIC_POSITIONS (alat)
Al       0.500000000   0.500000000  -2.157807957
Al       0.000000000   0.000000000  -1.439187124
Al       0.500000000   0.500000000  -0.709468206
Al       0.000000000   0.000000000   0.000000000
Al       0.500000000   0.500000000   0.709468206
Al       0.000000000   0.000000000   1.439187124
Al       0.500000000   0.500000000   2.157807957



     Writing output data file pwscf.save
     NEW-OLD atomic charge density approx. for the potential

     negative rho (up, down):  6.805E-07 0.000E+00

     total cpu time spent up to now is      126.0 secs

     per-process dynamical memory:    17.2 Mb

     Self-consistent Calculation

     iteration #  1     ecut=    30.00 Ry     beta=0.30
     Davidson diagonalization with overlap
     ethr =  1.00E-06,  avg # of iterations =  4.0

     negative rho (up, down):  3.223E-07 0.000E+00

     total cpu time spent up to now is      130.9 secs

     total energy              =     -29.00033227 Ry
     Harris-Foulkes estimate   =     -29.00044917 Ry
     estimated scf accuracy    <       0.00024872 Ry

     iteration #  2     ecut=    30.00 Ry     beta=0.30
     Davidson diagonalization with overlap
     ethr =  1.18E-06,  avg # of iterations =  3.3

     negative rho (up, down):  2.870E-07 0.000E+00

     total cpu time spent up to now is      132.9 secs

     total energy              =     -29.00008684 Ry
     Harris-Foulkes estimate   =     -29.00077864 Ry
     estimated scf accuracy    <       0.00877427 Ry

     iteration #  3     ecut=    30.00 Ry     beta=0.30
     Davidson diagonalization with overlap
     ethr =  1.18E-06,  avg # of iterations =  3.3

     total cpu time spent up to now is      134.8 secs

     total energy              =     -29.00043279 Ry
     Harris-Foulkes estimate   =     -29.00043345 Ry
     estimated scf accuracy    <       0.00001018 Ry

     iteration #  4     ecut=    30.00 Ry     beta=0.30
     Davidson diagonalization with overlap
     ethr =  4.85E-08,  avg # of iterations =  1.5

     total cpu time spent up to now is      136.6 secs

     total energy              =     -29.00043326 Ry
     Harris-Foulkes estimate   =     -29.00043322 Ry
     estimated scf accuracy    <       0.00000193 Ry

     iteration #  5     ecut=    30.00 Ry     beta=0.30
     Davidson diagonalization with overlap
     ethr =  9.21E-09,  avg # of iterations =  2.3

     total cpu time spent up to now is      138.3 secs

     total energy              =     -29.00043352 Ry
     Harris-Foulkes estimate   =     -29.00043350 Ry
     estimated scf accuracy    <       0.00000056 Ry

     iteration #  6     ecut=    30.00 Ry     beta=0.30
     Davidson diagonalization with overlap
     ethr =  2.65E-09,  avg # of iterations =  1.8

     total cpu time spent up to now is      139.1 secs

     total energy              =     -29.00043360 Ry
     Harris-Foulkes estimate   =     -29.00043358 Ry
     estimated scf accuracy    <       0.00000010 Ry

     iteration #  7     ecut=    30.00 Ry     beta=0.30
     Davidson diagonalization with overlap
     ethr =  4.59E-10,  avg # of iterations =  2.7

     total cpu time spent up to now is      140.9 secs

     total energy              =     -29.00043362 Ry
     Harris-Foulkes estimate   =     -29.00043362 Ry
     estimated scf accuracy    <       0.00000015 Ry

     iteration #  8     ecut=    30.00 Ry     beta=0.30
     Davidson diagonalization with overlap
     ethr =  4.59E-10,  avg # of iterations =  2.0

     total cpu time spent up to now is      142.7 secs

     End of self-consistent calculation

          k = 0.0000 0.0000 0.0000 (  3463 PWs)   bands (ev):

    -7.5234  -6.9642  -6.2105  -5.1068  -3.7197  -2.1268  -0.1995   1.0904
     3.6089   5.5536   6.7855   8.4101   8.5279   8.9930   9.3877

          k = 0.0000 0.1667 0.0000 (  3465 PWs)   bands (ev):

    -7.0159  -6.4582  -5.7067  -4.6061  -3.2227  -1.6340   0.2905   1.5625
     4.0300   4.7145   5.1326   5.8542   6.0720   6.9062   7.2963

          k = 0.0000 0.3333 0.0000 (  3428 PWs)   bands (ev):

    -5.5035  -4.9498  -4.2054  -3.1144  -1.7428  -0.1713   0.3861   0.9431
     1.6281   1.7895   2.6758   3.0096   4.0486   5.5571   5.5938

          k = 0.0000-0.5000 0.0000 (  3442 PWs)   bands (ev):

    -3.0248  -3.0079  -2.4899  -2.4496  -1.8069  -1.6623  -0.6897  -0.6244
     0.6101   0.7832   2.1116   2.3927   3.8748   4.5091   5.0623

          k = 0.1667 0.1667 0.0000 (  3439 PWs)   bands (ev):

    -6.5101  -5.9537  -5.2046  -4.1071  -2.7274  -1.1430   0.7784   2.0346
     4.5012   4.5089   5.0273   5.7106   6.1364   6.2168   6.7345

          k = 0.1667 0.3333 0.0000 (  3433 PWs)   bands (ev):

    -5.0028  -4.4504  -3.7085  -2.6206  -1.2529   0.3133   0.8455   1.4015
     2.0891   2.2617   3.1299   3.4742   4.4919   5.9417   6.0270

          k = 0.1667-0.5000 0.0000 (  3442 PWs)   bands (ev):

[...]

     total cpu time spent up to now is      167.6 secs

     total energy              =     -29.00048686 Ry
     Harris-Foulkes estimate   =     -29.00049058 Ry
     estimated scf accuracy    <       0.00004027 Ry

     iteration #  4     ecut=    30.00 Ry     beta=0.30
     Davidson diagonalization with overlap
     ethr =  6.73E-08,  avg # of iterations =  1.9

     total cpu time spent up to now is      169.2 secs

     total energy              =     -29.00048871 Ry
     Harris-Foulkes estimate   =     -29.00048868 Ry
     estimated scf accuracy    <       0.00000011 Ry

     iteration #  5     ecut=    30.00 Ry     beta=0.30
     Davidson diagonalization with overlap
     ethr =  5.19E-10,  avg # of iterations =  2.8

     total cpu time spent up to now is      172.2 secs

     total energy              =     -29.00048873 Ry
     Harris-Foulkes estimate   =     -29.00048873 Ry
     estimated scf accuracy    <       0.00000002 Ry

     iteration #  6     ecut=    30.00 Ry     beta=0.30
     Davidson diagonalization with overlap
     ethr =  8.34E-11,  avg # of iterations =  1.7

     total cpu time spent up to now is      174.5 secs

     End of self-consistent calculation

          k = 0.0000 0.0000 0.0000 (  3463 PWs)   bands (ev):

    -7.5152  -6.9807  -6.2080  -5.1061  -3.7275  -2.1225  -0.1983   1.0916
     3.6072   5.5600   6.7859   8.4125   8.5287   9.0021   9.3977

          k = 0.0000 0.1667 0.0000 (  3465 PWs)   bands (ev):

    -7.0077  -6.4747  -5.7042  -4.6054  -3.2305  -1.6298   0.2916   1.5637
     4.0298   4.7219   5.1152   5.8569   6.0793   6.9071   7.2963

          k = 0.0000 0.3333 0.0000 (  3428 PWs)   bands (ev):

    -5.4952  -4.9663  -4.2030  -3.1136  -1.7506  -0.1673   0.3947   0.9266
     1.6308   1.7901   2.6750   3.0125   4.0408   5.5539   5.5990

          k = 0.0000-0.5000 0.0000 (  3442 PWs)   bands (ev):

    -3.0156  -3.0002  -2.5082  -2.4645  -1.8037  -1.6605  -0.6887  -0.6240
     0.6038   0.7728   2.1136   2.3999   3.8768   4.5096   5.0633

          k = 0.1667 0.1667 0.0000 (  3439 PWs)   bands (ev):

    -6.5019  -5.9702  -5.2021  -4.1064  -2.7352  -1.1388   0.7795   2.0358
     4.5081   4.5106   5.0096   5.7134   6.1437   6.2074   6.7357

          k = 0.1667 0.3333 0.0000 (  3433 PWs)   bands (ev):

    -4.9945  -4.4670  -3.7060  -2.6199  -1.2607   0.3173   0.8541   1.3849
     2.0917   2.2625   3.1294   3.4769   4.4838   5.9405   6.0325

          k = 0.1667-0.5000 0.0000 (  3442 PWs)   bands (ev):

    -2.5255  -2.5101  -2.0200  -1.9756  -1.3204  -1.1718  -0.2169  -0.1291
     1.0881   1.2474   2.5910   2.8693   4.3462   4.9662   5.5322

          k = 0.3333 0.3333 0.0000 (  3424 PWs)   bands (ev):

    -3.5042  -2.9809  -2.2275  -1.1513   0.1953   1.7047   1.7553   2.2036
     2.9098   3.0453   3.6827   3.7515   3.9353   4.4373   4.8095

          k = 0.3333-0.5000 0.0000 (  3412 PWs)   bands (ev):

    -1.0783  -1.0639  -0.5778  -0.5351   0.1105   0.2597   1.1829   1.3118
     2.5106   2.6374   3.9863   4.2290   4.8554   4.8941   5.3890

          k =-0.5000-0.5000 0.0000 (  3428 PWs)   bands (ev):

     0.7709   0.7709   1.2693   1.2693   1.9760   1.9760   2.1114   2.1511
     2.5887   2.7063   3.0016   3.0016   3.1972   3.6635   4.3038

     the Fermi energy is     3.4731 ev

!    total energy              =     -29.00048873 Ry
     Harris-Foulkes estimate   =     -29.00048873 Ry
     estimated scf accuracy    <          1.8E-09 Ry

     The total energy is the sum of the following terms:

     one-electron contribution =    -169.62992280 Ry
     hartree contribution      =      91.43084306 Ry
     xc contribution           =     -11.04953516 Ry
     ewald contribution        =      60.29045652 Ry
     smearing contrib. (-TS)   =      -0.04233035 Ry

     convergence has been achieved in   6 iterations

     Forces acting on atoms (Ry/au):

     atom    1 type  1   force =     0.00000000    0.00000000    0.00104512
     atom    2 type  1   force =     0.00000000    0.00000000   -0.00164782
     atom    3 type  1   force =     0.00000000    0.00000000    0.00002409
     atom    4 type  1   force =     0.00000000    0.00000000    0.00000000
     atom    5 type  1   force =     0.00000000    0.00000000   -0.00002409
     atom    6 type  1   force =     0.00000000    0.00000000    0.00164782
     atom    7 type  1   force =     0.00000000    0.00000000   -0.00104512

     Total force =     0.002760     Total SCF correction =     0.000040

     number of scf cycles    =  13
     number of bfgs steps    =  12

     energy   old            =     -29.0004700060 Ry
     energy   new            =     -29.0004887319 Ry

     CASE: energy  _new < energy  _old

     new trust radius        =       0.0054645452 bohr
     new conv_thr            =       0.0000000100 Ry


ATOMIC_POSITIONS (alat)
Al       0.500000000   0.500000000  -2.156189817
Al       0.000000000   0.000000000  -1.439925261
Al       0.500000000   0.500000000  -0.713652706
Al       0.000000000   0.000000000   0.000000000
Al       0.500000000   0.500000000   0.713652706
Al       0.000000000   0.000000000   1.439925261
Al       0.500000000   0.500000000   2.156189817



     Writing output data file pwscf.save
     NEW-OLD atomic charge density approx. for the potential

     total cpu time spent up to now is      176.6 secs

     per-process dynamical memory:    22.4 Mb

     Self-consistent Calculation

     iteration #  1     ecut=    30.00 Ry     beta=0.30
     Davidson diagonalization with overlap
     ethr =  1.00E-06,  avg # of iterations =  2.1

     Threshold (ethr) on eigenvalues was too large:
     Diagonalizing with lowered threshold

     Davidson diagonalization with overlap
     ethr =  3.38E-08,  avg # of iterations =  2.9

     total cpu time spent up to now is      181.5 secs

     total energy              =     -29.00049893 Ry
     Harris-Foulkes estimate   =     -29.00050403 Ry
     estimated scf accuracy    <       0.00001080 Ry

     iteration #  2     ecut=    30.00 Ry     beta=0.30
     Davidson diagonalization with overlap
     ethr =  5.14E-08,  avg # of iterations =  3.0

     total cpu time spent up to now is      183.0 secs

     total energy              =     -29.00049203 Ry
     Harris-Foulkes estimate   =     -29.00051193 Ry
     estimated scf accuracy    <       0.00021979 Ry

     iteration #  3     ecut=    30.00 Ry     beta=0.30
     Davidson diagonalization with overlap
     ethr =  5.14E-08,  avg # of iterations =  2.7

     total cpu time spent up to now is      185.2 secs

     total energy              =     -29.00050236 Ry
     Harris-Foulkes estimate   =     -29.00050340 Ry
     estimated scf accuracy    <       0.00000875 Ry

     iteration #  4     ecut=    30.00 Ry     beta=0.30
     Davidson diagonalization with overlap
     ethr =  4.16E-08,  avg # of iterations =  1.6

     total cpu time spent up to now is      187.0 secs

     total energy              =     -29.00050287 Ry
     Harris-Foulkes estimate   =     -29.00050288 Ry
     estimated scf accuracy    <       0.00000011 Ry

     iteration #  5     ecut=    30.00 Ry     beta=0.30
     Davidson diagonalization with overlap
     ethr =  5.24E-10,  avg # of iterations =  3.1

     total cpu time spent up to now is      189.5 secs

     total energy              =     -29.00050290 Ry
     Harris-Foulkes estimate   =     -29.00050289 Ry
     estimated scf accuracy    <       0.00000003 Ry

     iteration #  6     ecut=    30.00 Ry     beta=0.30
     Davidson diagonalization with overlap
     ethr =  1.37E-10,  avg # of iterations =  2.0

     total cpu time spent up to now is      191.7 secs

     End of self-consistent calculation

          k = 0.0000 0.0000 0.0000 (  3463 PWs)   bands (ev):

    -7.5142  -6.9874  -6.2132  -5.1089  -3.7281  -2.1199  -0.1962   1.0938
     3.6091   5.5654   6.7883   8.4142   8.5318   9.0032   9.3990

          k = 0.0000 0.1667 0.0000 (  3465 PWs)   bands (ev):

    -7.0067  -6.4813  -5.7095  -4.6082  -3.2311  -1.6272   0.2938   1.5659
     4.0316   4.7231   5.1082   5.8511   6.0847   6.9041   7.2987

          k = 0.0000 0.3333 0.0000 (  3428 PWs)   bands (ev):

    -5.4942  -4.9730  -4.2083  -3.1165  -1.7513  -0.1648   0.3958   0.9199
     1.6269   1.7905   2.6724   3.0140   4.0400   5.5555   5.6020

          k = 0.0000-0.5000 0.0000 (  3442 PWs)   bands (ev):

    -3.0147  -2.9990  -2.5158  -2.4702  -1.8087  -1.6663  -0.6923  -0.6262
     0.6041   0.7709   2.1157   2.4027   3.8777   4.5132   5.0646

          k = 0.1667 0.1667 0.0000 (  3439 PWs)   bands (ev):

    -6.5009  -5.9769  -5.2074  -4.1092  -2.7358  -1.1363   0.7817   2.0380
     4.5099   4.5117   5.0024   5.7074   6.1448   6.2045   6.7324

          k = 0.1667 0.3333 0.0000 (  3433 PWs)   bands (ev):

    -4.9935  -4.4737  -3.7114  -2.6227  -1.2614   0.3197   0.8552   1.3782
     2.0873   2.2634   3.1267   3.4785   4.4830   5.9421   6.0356

          k = 0.1667-0.5000 0.0000 (  3442 PWs)   bands (ev):

    -2.5246  -2.5089  -2.0276  -1.9814  -1.3254  -1.1776  -0.2206  -0.1313
     1.0884   1.2455   2.5930   2.8722   4.3471   4.9698   5.5334

          k = 0.3333 0.3333 0.0000 (  3424 PWs)   bands (ev):

    -3.5032  -2.9876  -2.2329  -1.1542   0.1946   1.7059   1.7576   2.1965
     2.9039   3.0464   3.6765   3.7534   3.9319   4.4322   4.8109

          k = 0.3333-0.5000 0.0000 (  3412 PWs)   bands (ev):

    -1.0775  -1.0626  -0.5855  -0.5409   0.1054   0.2537   1.1791   1.3095
     2.5107   2.6357   3.9884   4.2318   4.8561   4.8955   5.3809

          k =-0.5000-0.5000 0.0000 (  3428 PWs)   bands (ev):

     0.7721   0.7721   1.2623   1.2623   1.9701   1.9701   2.1118   2.1526
     2.5799   2.7027   2.9983   2.9983   3.1933   3.6571   4.2989

     the Fermi energy is     3.4724 ev

!    total energy              =     -29.00050290 Ry
     Harris-Foulkes estimate   =     -29.00050290 Ry
     estimated scf accuracy    <          5.4E-09 Ry

     The total energy is the sum of the following terms:

     one-electron contribution =    -169.71173550 Ry
     hartree contribution      =      91.47059107 Ry
     xc contribution           =     -11.05085001 Ry
     ewald contribution        =      60.33378265 Ry
     smearing contrib. (-TS)   =      -0.04229111 Ry

     convergence has been achieved in   6 iterations

     Forces acting on atoms (Ry/au):

     atom    1 type  1   force =     0.00000000    0.00000000    0.00055273
     atom    2 type  1   force =     0.00000000    0.00000000   -0.00128078
     atom    3 type  1   force =     0.00000000    0.00000000    0.00043470
     atom    4 type  1   force =     0.00000000    0.00000000    0.00000000
     atom    5 type  1   force =     0.00000000    0.00000000   -0.00043470
     atom    6 type  1   force =     0.00000000    0.00000000    0.00128078
     atom    7 type  1   force =     0.00000000    0.00000000   -0.00055273

     Total force =     0.002066     Total SCF correction =     0.000104

     number of scf cycles    =  14
     number of bfgs steps    =  13

     energy   old            =     -29.0004887319 Ry
     energy   new            =     -29.0005028987 Ry

     CASE: energy  _new < energy  _old

     new trust radius        =       0.0069711595 bohr
     new conv_thr            =       0.0000000100 Ry


ATOMIC_POSITIONS (alat)
Al       0.500000000   0.500000000  -2.155858851
Al       0.000000000   0.000000000  -1.441223428
Al       0.500000000   0.500000000  -0.714133042
Al       0.000000000   0.000000000   0.000000000
Al       0.500000000   0.500000000   0.714133042
Al       0.000000000   0.000000000   1.441223428
Al       0.500000000   0.500000000   2.155858851



     Writing output data file pwscf.save
     NEW-OLD atomic charge density approx. for the potential

     total cpu time spent up to now is      192.7 secs

     per-process dynamical memory:    22.4 Mb

     Self-consistent Calculation

     iteration #  1     ecut=    30.00 Ry     beta=0.30
     Davidson diagonalization with overlap
     ethr =  1.00E-06,  avg # of iterations =  2.3

     Threshold (ethr) on eigenvalues was too large:
     Diagonalizing with lowered threshold

     Davidson diagonalization with overlap
     ethr =  3.02E-08,  avg # of iterations =  2.9

     total cpu time spent up to now is      198.9 secs

     total energy              =     -29.00051043 Ry
     Harris-Foulkes estimate   =     -29.00051583 Ry
     estimated scf accuracy    <       0.00001157 Ry

     iteration #  2     ecut=    30.00 Ry     beta=0.30
     Davidson diagonalization with overlap
     ethr =  5.51E-08,  avg # of iterations =  3.0

     total cpu time spent up to now is      202.1 secs

     total energy              =     -29.00050106 Ry
     Harris-Foulkes estimate   =     -29.00052733 Ry
     estimated scf accuracy    <       0.00032204 Ry

     iteration #  3     ecut=    30.00 Ry     beta=0.30
     Davidson diagonalization with overlap
     ethr =  5.51E-08,  avg # of iterations =  2.8

     total cpu time spent up to now is      204.6 secs

     total energy              =     -29.00051447 Ry
     Harris-Foulkes estimate   =     -29.00051468 Ry
     estimated scf accuracy    <       0.00000153 Ry

     iteration #  4     ecut=    30.00 Ry     beta=0.30
     Davidson diagonalization with overlap
     ethr =  7.30E-09,  avg # of iterations =  1.9

     total cpu time spent up to now is      206.5 secs

     total energy              =     -29.00051457 Ry
     Harris-Foulkes estimate   =     -29.00051461 Ry
     estimated scf accuracy    <       0.00000021 Ry

     iteration #  5     ecut=    30.00 Ry     beta=0.30
     Davidson diagonalization with overlap
     ethr =  1.02E-09,  avg # of iterations =  2.1

     total cpu time spent up to now is      207.6 secs

     total energy              =     -29.00051460 Ry
     Harris-Foulkes estimate   =     -29.00051460 Ry
     estimated scf accuracy    <       0.00000004 Ry

     iteration #  6     ecut=    30.00 Ry     beta=0.30
     Davidson diagonalization with overlap
     ethr =  1.92E-10,  avg # of iterations =  2.1

     total cpu time spent up to now is      208.7 secs

     End of self-consistent calculation

          k = 0.0000 0.0000 0.0000 (  3463 PWs)   bands (ev):

    -7.5108  -6.9895  -6.2192  -5.1116  -3.7264  -2.1181  -0.1954   1.0949
     3.6078   5.5673   6.7893   8.4141   8.5332   9.0067   9.4028

          k = 0.0000 0.1667 0.0000 (  3465 PWs)   bands (ev):

    -7.0034  -6.4834  -5.7154  -4.6110  -3.2295  -1.6254   0.2946   1.5670
     4.0310   4.7257   5.1058   5.8445   6.0868   6.9011   7.2998

          k = 0.0000 0.3333 0.0000 (  3428 PWs)   bands (ev):

    -5.4908  -4.9751  -4.2142  -3.1193  -1.7496  -0.1631   0.3992   0.9177
     1.6222   1.7897   2.6701   3.0141   4.0414   5.5542   5.6042

          k = 0.0000-0.5000 0.0000 (  3442 PWs)   bands (ev):

    -3.0118  -2.9952  -2.5187  -2.4715  -1.8141  -1.6729  -0.6958  -0.6285
     0.6068   0.7714   2.1175   2.4041   3.8768   4.5157   5.0647

          k = 0.1667 0.1667 0.0000 (  3439 PWs)   bands (ev):

    -6.4975  -5.9790  -5.2133  -4.1120  -2.7342  -1.1345   0.7825   2.0390
     4.5091   4.5153   5.0000   5.7006   6.1474   6.2029   6.7291

          k = 0.1667 0.3333 0.0000 (  3433 PWs)   bands (ev):

    -4.9902  -4.4758  -3.7173  -2.6255  -1.2598   0.3215   0.8586   1.3760
     2.0821   2.2630   3.1242   3.4788   4.4845   5.9415   6.0379

          k = 0.1667-0.5000 0.0000 (  3442 PWs)   bands (ev):

    -2.5217  -2.5050  -2.0306  -1.9826  -1.3308  -1.1843  -0.2241  -0.1336
     1.0910   1.2461   2.5950   2.8736   4.3461   4.9723   5.5335

          k = 0.3333 0.3333 0.0000 (  3424 PWs)   bands (ev):

    -3.4998  -2.9897  -2.2389  -1.1570   0.1962   1.7094   1.7594   2.1941
     2.8972   3.0497   3.6745   3.7541   3.9287   4.4265   4.8118

          k = 0.3333-0.5000 0.0000 (  3412 PWs)   bands (ev):

    -1.0745  -1.0588  -0.5884  -0.5422   0.1000   0.2469   1.1755   1.3071
     2.5132   2.6366   3.9903   4.2336   4.8589   4.8998   5.3774

          k =-0.5000-0.5000 0.0000 (  3428 PWs)   bands (ev):

     0.7756   0.7756   1.2600   1.2600   1.9635   1.9635   2.1141   2.1573
     2.5759   2.7036   2.9951   2.9951   3.1895   3.6496   4.2942

     the Fermi energy is     3.4717 ev

!    total energy              =     -29.00051461 Ry
     Harris-Foulkes estimate   =     -29.00051461 Ry
     estimated scf accuracy    <          6.3E-09 Ry

     The total energy is the sum of the following terms:

     one-electron contribution =    -169.57933847 Ry
     hartree contribution      =      91.40421150 Ry
     xc contribution           =     -11.05127121 Ry
     ewald contribution        =      60.26814853 Ry
     smearing contrib. (-TS)   =      -0.04226496 Ry

     convergence has been achieved in   6 iterations

     Forces acting on atoms (Ry/au):

     atom    1 type  1   force =     0.00000000    0.00000000    0.00005036
     atom    2 type  1   force =     0.00000000    0.00000000   -0.00056244
     atom    3 type  1   force =     0.00000000    0.00000000    0.00044248
     atom    4 type  1   force =     0.00000000    0.00000000    0.00000000
     atom    5 type  1   force =     0.00000000    0.00000000   -0.00044248
     atom    6 type  1   force =     0.00000000    0.00000000    0.00056244
     atom    7 type  1   force =     0.00000000    0.00000000   -0.00005036

     Total force =     0.001015     Total SCF correction =     0.000088

     bfgs converged in  15 scf cycles and  14 bfgs steps
     (criteria: energy <  1.0E-04, force <  1.0E-03)

     End of BFGS Geometry Optimization

     Final energy   =     -29.0005146113 Ry
Begin final coordinates

ATOMIC_POSITIONS (alat)
Al       0.500000000   0.500000000  -2.155858851
Al       0.000000000   0.000000000  -1.441223428
Al       0.500000000   0.500000000  -0.714133042
Al       0.000000000   0.000000000   0.000000000
Al       0.500000000   0.500000000   0.714133042
Al       0.000000000   0.000000000   1.441223428
Al       0.500000000   0.500000000   2.155858851
End final coordinates



     Writing output data file pwscf.save

     init_run     :      1.00s CPU      1.61s WALL (       1 calls)
     electrons    :    130.03s CPU    191.94s WALL (      15 calls)
     update_pot   :      2.94s CPU      4.84s WALL (      14 calls)
     forces       :      4.72s CPU      8.08s WALL (      15 calls)

     Called by init_run:
     wfcinit      :      0.77s CPU      1.33s WALL (       1 calls)
     potinit      :      0.05s CPU      0.06s WALL (       1 calls)

     Called by electrons:
     c_bands      :    107.11s CPU    153.16s WALL (     115 calls)
     sum_band     :     16.40s CPU     27.75s WALL (     115 calls)
     v_of_rho     :      5.79s CPU      9.22s WALL (     126 calls)
     mix_rho      :      0.78s CPU      1.16s WALL (     115 calls)

     Called by c_bands:
     init_us_2    :      2.00s CPU      3.45s WALL (    2460 calls)
     cegterg      :    103.05s CPU    147.55s WALL (    1150 calls)

     Called by *egterg:
     h_psi        :     69.56s CPU    101.59s WALL (    4113 calls)
     g_psi        :      0.30s CPU      0.39s WALL (    2953 calls)
     cdiaghg      :      3.66s CPU      4.94s WALL (    3923 calls)

     Called by h_psi:
     add_vuspsi   :      7.24s CPU     10.54s WALL (    4113 calls)

     General routines
     calbec       :     13.52s CPU     19.65s WALL (    4263 calls)
     fft          :      3.14s CPU      4.34s WALL (    1423 calls)
     fftw         :     56.86s CPU     86.31s WALL (  104648 calls)
     davcio       :      0.00s CPU      0.00s WALL (      10 calls)

     Parallel routines
     fft_scatter  :     36.84s CPU     55.27s WALL (  106071 calls)

     PWSCF        :  2m19.98s CPU     3m29.26s WALL


   This run was terminated on:  22:39:11  21May2020            

=------------------------------------------------------------------------------=
   JOB DONE.
=------------------------------------------------------------------------------=
