
     Program PWSCF v.5.1 starts on 25May2020 at 21:16: 3 

     This program is part of the open-source Quantum ESPRESSO suite
     for quantum simulation of materials; please cite
         "P. Giannozzi et al., J. Phys.:Condens. Matter 21 395502 (2009);
          URL http://www.quantum-espresso.org", 
     in publications or presentations arising from this work. More details at
     http://www.quantum-espresso.org/quote

     Parallel version (MPI), running on     2 processors
     R & G space division:  proc/nbgrp/npool/nimage =       2
     Waiting for input...
     Reading input from standard input
     Message from routine read_cards :
     DEPRECATED: no units specified in ATOMIC_POSITIONS card
     Message from routine read_cards :
     ATOMIC_POSITIONS: units set to alat

     Current dimensions of program PWSCF are:
     Max number of different atomic species (ntypx) = 10
     Max number of k-points (npk) =  40000
     Max angular momentum in pseudopotentials (lmaxx) =  3

     Atomic positions and unit cell read from directory:
     ./Ge.save/


     Subspace diagonalization in iterative solution of the eigenvalue problem:
     a serial algorithm will be used


     Parallelization info
     --------------------
     sticks:   dense  smooth     PW     G-vecs:    dense   smooth      PW
     Min         231     231     75                 3307     3307     620
     Max         232     232     76                 3308     3308     623
     Sum         463     463    151                 6615     6615    1243



     bravais-lattice index     =            2
     lattice parameter (alat)  =      10.6329  a.u.
     unit-cell volume          =     300.5358 (a.u.)^3
     number of atoms/cell      =            2
     number of atomic types    =            1
     number of electrons       =        28.00
     number of Kohn-Sham states=           18
     kinetic-energy cutoff     =      30.0000  Ry
     charge density cutoff     =     120.0000  Ry
     Exchange-correlation      =  SLA  PW   PBX  PBC ( 1  4  3  4 0)

     celldm(1)=  10.632908  celldm(2)=   0.000000  celldm(3)=   0.000000
     celldm(4)=   0.000000  celldm(5)=   0.000000  celldm(6)=   0.000000

     crystal axes: (cart. coord. in units of alat)
               a(1) = (  -0.500000   0.000000   0.500000 )  
               a(2) = (   0.000000   0.500000   0.500000 )  
               a(3) = (  -0.500000   0.500000   0.000000 )  

     reciprocal axes: (cart. coord. in units 2 pi/alat)
               b(1) = ( -1.000000 -1.000000  1.000000 )  
               b(2) = (  1.000000  1.000000  1.000000 )  
               b(3) = ( -1.000000  1.000000 -1.000000 )  


     PseudoPot. # 1 for Ge read from file:
     ./ge_pbe_v1.4.uspp.F.UPF
     MD5 check sum: 9c9eaa91e581c3f09632fb3098b2c6b2
     Pseudo is Ultrasoft + core correction, Zval = 14.0
     Generated by new atomic code, or converted to UPF format
     Using radial grid of  873 points,  6 beta functions with: 
                l(1) =   0
                l(2) =   0
                l(3) =   1
                l(4) =   1
                l(5) =   2
                l(6) =   2
     Q(r) pseudized with  8 coefficients,  rinner =    1.400   1.400   1.400
                                                       1.400   1.400

     atomic species   valence    mass     pseudopotential
        Ge            14.00    72.59000     Ge( 1.00)

     24 Sym. Ops. (no inversion) found
          (note: 24 additional sym.ops. were found but ignored
           their fractional translations are incommensurate with FFT grid)


   Cartesian axes

     site n.     atom                  positions (alat units)
         1           Ge  tau(   1) = (   0.0000000   0.0000000   0.0000000  )
         2           Ge  tau(   2) = (   0.2500000   0.2500000   0.2500000  )

     number of k points=   897 (tetrahedron method)

     Number of k-points >= 100: set verbosity='high' to print them.

     Dense  grid:     6615 G-vectors     FFT dimensions: (  27,  27,  27)

     Largest allocated arrays     est. size (Mb)     dimensions
        Kohn-Sham Wavefunctions         0.12 Mb     (     435,   18)
        NL pseudopotentials             0.24 Mb     (     435,   36)
        Each V/rho on FFT grid          0.16 Mb     (   10206)
        Each G-vector array             0.03 Mb     (    3308)
        G-vector shells                 0.00 Mb     (     117)
     Largest temporary arrays     est. size (Mb)     dimensions
        Auxiliary wavefunctions         0.48 Mb     (     435,   72)
        Each subspace H/S matrix        0.08 Mb     (      72,   72)
        Each <psi_i|beta_j> matrix      0.01 Mb     (      36,   18)

     Check: negative/imaginary core charge=   -0.000162    0.000000

     The potential is recalculated from file :
     ./Ge.save/charge-density.dat

     Starting wfc are   18 randomized atomic wfcs

     Band Structure Calculation
     Davidson diagonalization with overlap

     ethr =  3.57E-11,  avg # of iterations = 13.5

     total cpu time spent up to now is      382.3 secs

     End of band structure calculation

     Number of k-points >= 100: set verbosity='high' to print the bands.

     the Fermi energy is     8.7414 ev

     Writing output data file Ge.save

     init_run     :      2.50s CPU      2.64s WALL (       1 calls)
     electrons    :    249.78s CPU    326.52s WALL (       1 calls)

     Called by init_run:
     wfcinit      :      0.00s CPU      0.00s WALL (       1 calls)
     potinit      :      0.01s CPU      0.01s WALL (       1 calls)

     Called by electrons:
     c_bands      :    247.82s CPU    324.53s WALL (       1 calls)
     v_of_rho     :      0.01s CPU      0.01s WALL (       1 calls)
     newd         :      0.02s CPU      0.02s WALL (       1 calls)

     Called by c_bands:
     init_us_2    :      0.28s CPU      0.32s WALL (     897 calls)
     cegterg      :    227.79s CPU    298.55s WALL (     897 calls)

     Called by *egterg:
     h_psi        :    157.47s CPU    207.48s WALL (   13869 calls)
     s_psi        :      6.08s CPU      7.71s WALL (   13869 calls)
     g_psi        :      0.38s CPU      0.45s WALL (   12075 calls)
     cdiaghg      :     29.59s CPU     38.38s WALL (   12972 calls)

     Called by h_psi:
     add_vuspsi   :      6.12s CPU      8.00s WALL (   13869 calls)

     General routines
     calbec       :      9.57s CPU     12.72s WALL (   13869 calls)
     fft          :      0.01s CPU      0.01s WALL (      12 calls)
     fftw         :    135.73s CPU    179.38s WALL (  340434 calls)
     davcio       :      0.06s CPU      0.77s WALL (     897 calls)

     Parallel routines
     fft_scatter  :     42.26s CPU     61.18s WALL (  340446 calls)

     PWSCF        :  5m19.32s CPU     6m56.22s WALL


   This run was terminated on:  21:23: 0  25May2020            

=------------------------------------------------------------------------------=
   JOB DONE.
=------------------------------------------------------------------------------=
