
     Program PWSCF v.5.1 starts on 25May2020 at 21:15:41 

     This program is part of the open-source Quantum ESPRESSO suite
     for quantum simulation of materials; please cite
         "P. Giannozzi et al., J. Phys.:Condens. Matter 21 395502 (2009);
          URL http://www.quantum-espresso.org", 
     in publications or presentations arising from this work. More details at
     http://www.quantum-espresso.org/quote

     Parallel version (MPI), running on     2 processors
     R & G space division:  proc/nbgrp/npool/nimage =       2
     Waiting for input...
     Reading input from standard input
     Message from routine read_cards :
     DEPRECATED: no units specified in ATOMIC_POSITIONS card
     Message from routine read_cards :
     ATOMIC_POSITIONS: units set to alat

     Current dimensions of program PWSCF are:
     Max number of different atomic species (ntypx) = 10
     Max number of k-points (npk) =  40000
     Max angular momentum in pseudopotentials (lmaxx) =  3

     Subspace diagonalization in iterative solution of the eigenvalue problem:
     a serial algorithm will be used


     Parallelization info
     --------------------
     sticks:   dense  smooth     PW     G-vecs:    dense   smooth      PW
     Min         231     231     75                 3307     3307     604
     Max         232     232     76                 3308     3308     607
     Sum         463     463    151                 6615     6615    1211



     bravais-lattice index     =            2
     lattice parameter (alat)  =      10.6329  a.u.
     unit-cell volume          =     300.5358 (a.u.)^3
     number of atoms/cell      =            2
     number of atomic types    =            1
     number of electrons       =        28.00
     number of Kohn-Sham states=           14
     kinetic-energy cutoff     =      30.0000  Ry
     charge density cutoff     =     120.0000  Ry
     convergence threshold     =      1.0E-08
     mixing beta               =       0.7000
     number of iterations used =            8  plain     mixing
     Exchange-correlation      =  SLA  PW   PBX  PBC ( 1  4  3  4 0)

     celldm(1)=  10.632908  celldm(2)=   0.000000  celldm(3)=   0.000000
     celldm(4)=   0.000000  celldm(5)=   0.000000  celldm(6)=   0.000000

     crystal axes: (cart. coord. in units of alat)
               a(1) = (  -0.500000   0.000000   0.500000 )  
               a(2) = (   0.000000   0.500000   0.500000 )  
               a(3) = (  -0.500000   0.500000   0.000000 )  

     reciprocal axes: (cart. coord. in units 2 pi/alat)
               b(1) = ( -1.000000 -1.000000  1.000000 )  
               b(2) = (  1.000000  1.000000  1.000000 )  
               b(3) = ( -1.000000  1.000000 -1.000000 )  


     PseudoPot. # 1 for Ge read from file:
     ./ge_pbe_v1.4.uspp.F.UPF
     MD5 check sum: 9c9eaa91e581c3f09632fb3098b2c6b2
     Pseudo is Ultrasoft + core correction, Zval = 14.0
     Generated by new atomic code, or converted to UPF format
     Using radial grid of  873 points,  6 beta functions with: 
                l(1) =   0
                l(2) =   0
                l(3) =   1
                l(4) =   1
                l(5) =   2
                l(6) =   2
     Q(r) pseudized with  8 coefficients,  rinner =    1.400   1.400   1.400
                                                       1.400   1.400

     atomic species   valence    mass     pseudopotential
        Ge            14.00    72.59000     Ge( 1.00)

     24 Sym. Ops. (no inversion) found
          (note: 24 additional sym.ops. were found but ignored
           their fractional translations are incommensurate with FFT grid)


   Cartesian axes

     site n.     atom                  positions (alat units)
         1           Ge  tau(   1) = (   0.0000000   0.0000000   0.0000000  )
         2           Ge  tau(   2) = (   0.2500000   0.2500000   0.2500000  )

     number of k points=     8
                       cart. coord. in units 2pi/alat
        k(    1) = (   0.0000000   0.0000000   0.0000000), wk =   0.0312500
        k(    2) = (  -0.2500000   0.2500000  -0.2500000), wk =   0.2500000
        k(    3) = (   0.5000000  -0.5000000   0.5000000), wk =   0.1250000
        k(    4) = (   0.0000000   0.5000000   0.0000000), wk =   0.1875000
        k(    5) = (   0.7500000  -0.2500000   0.7500000), wk =   0.7500000
        k(    6) = (   0.5000000   0.0000000   0.5000000), wk =   0.3750000
        k(    7) = (   0.0000000  -1.0000000   0.0000000), wk =   0.0937500
        k(    8) = (  -0.5000000  -1.0000000   0.0000000), wk =   0.1875000

     Dense  grid:     6615 G-vectors     FFT dimensions: (  27,  27,  27)

     Largest allocated arrays     est. size (Mb)     dimensions
        Kohn-Sham Wavefunctions         0.09 Mb     (     436,   14)
        NL pseudopotentials             0.24 Mb     (     436,   36)
        Each V/rho on FFT grid          0.16 Mb     (   10206)
        Each G-vector array             0.03 Mb     (    3308)
        G-vector shells                 0.00 Mb     (     117)
     Largest temporary arrays     est. size (Mb)     dimensions
        Auxiliary wavefunctions         0.37 Mb     (     436,   56)
        Each subspace H/S matrix        0.05 Mb     (      56,   56)
        Each <psi_i|beta_j> matrix      0.01 Mb     (      36,   14)
        Arrays for rho mixing           1.25 Mb     (   10206,    8)

     Check: negative/imaginary core charge=   -0.000162    0.000000

     Initial potential from superposition of free atoms

     starting charge   27.99825, renormalised to   28.00000
     Starting wfc are   18 randomized atomic wfcs

     total cpu time spent up to now is        1.7 secs

     per-process dynamical memory:     8.5 Mb

     Self-consistent Calculation

     iteration #  1     ecut=    30.00 Ry     beta=0.70
     Davidson diagonalization with overlap
     ethr =  1.00E-02,  avg # of iterations =  1.6

     Threshold (ethr) on eigenvalues was too large:
     Diagonalizing with lowered threshold

     Davidson diagonalization with overlap
     ethr =  1.42E-04,  avg # of iterations =  1.9

     total cpu time spent up to now is        2.6 secs

     total energy              =    -427.25003429 Ry
     Harris-Foulkes estimate   =    -427.25906702 Ry
     estimated scf accuracy    <       0.04243392 Ry

     iteration #  2     ecut=    30.00 Ry     beta=0.70
     Davidson diagonalization with overlap
     ethr =  1.52E-04,  avg # of iterations =  1.6

     total cpu time spent up to now is        3.0 secs

     total energy              =    -427.25158422 Ry
     Harris-Foulkes estimate   =    -427.25166813 Ry
     estimated scf accuracy    <       0.00224917 Ry

     iteration #  3     ecut=    30.00 Ry     beta=0.70
     Davidson diagonalization with overlap
     ethr =  8.03E-06,  avg # of iterations =  2.4

     total cpu time spent up to now is        3.3 secs

     total energy              =    -427.25174294 Ry
     Harris-Foulkes estimate   =    -427.25176474 Ry
     estimated scf accuracy    <       0.00005125 Ry

     iteration #  4     ecut=    30.00 Ry     beta=0.70
     Davidson diagonalization with overlap
     ethr =  1.83E-07,  avg # of iterations =  2.1

     total cpu time spent up to now is        3.7 secs

     total energy              =    -427.25176106 Ry
     Harris-Foulkes estimate   =    -427.25176229 Ry
     estimated scf accuracy    <       0.00000589 Ry

     iteration #  5     ecut=    30.00 Ry     beta=0.70
     Davidson diagonalization with overlap
     ethr =  2.10E-08,  avg # of iterations =  2.6

     total cpu time spent up to now is        4.2 secs

     total energy              =    -427.25176210 Ry
     Harris-Foulkes estimate   =    -427.25176207 Ry
     estimated scf accuracy    <       0.00000009 Ry

     iteration #  6     ecut=    30.00 Ry     beta=0.70
     Davidson diagonalization with overlap
     ethr =  3.29E-10,  avg # of iterations =  2.5

     total cpu time spent up to now is        4.8 secs

     End of self-consistent calculation

          k = 0.0000 0.0000 0.0000 (   869 PWs)   bands (ev):

   -16.1615 -16.1615 -16.1615 -16.1382 -16.1382 -15.9234 -15.9234 -15.9234
   -15.9033 -15.9033  -4.1562   8.7422   8.7422   8.7422

          k =-0.2500 0.2500-0.2500 (   839 PWs)   bands (ev):

   -16.1773 -16.1773 -16.1508 -16.0992 -16.0992 -15.9370 -15.9370 -15.9257
   -15.8784 -15.8784  -3.4019   4.0036   7.8395   7.8395

          k = 0.5000-0.5000 0.5000 (   832 PWs)   bands (ev):

   -16.1848 -16.1848 -16.1435 -16.0840 -16.0840 -15.9510 -15.9510 -15.9329
   -15.8624 -15.8624  -2.0272   1.0696   7.3080   7.3080

          k = 0.0000 0.5000 0.0000 (   833 PWs)   bands (ev):

   -16.1763 -16.1763 -16.1745 -16.0899 -16.0555 -16.0018 -15.9330 -15.8821
   -15.8821 -15.8808  -3.1299   4.0333   6.6611   6.6611

          k = 0.7500-0.2500 0.7500 (   830 PWs)   bands (ev):

   -16.2044 -16.1892 -16.1266 -16.0554 -16.0367 -16.0181 -15.9652 -15.9331
   -15.8555 -15.8463  -1.6134   1.3121   4.9534   6.2906

          k = 0.5000 0.0000 0.5000 (   837 PWs)   bands (ev):

   -16.2008 -16.1924 -16.1167 -16.0832 -16.0556 -15.9818 -15.9597 -15.9497
   -15.8594 -15.8522  -2.2392   2.1833   4.8075   7.2052

          k = 0.0000-1.0000 0.0000 (   806 PWs)   bands (ev):

   -16.1803 -16.1803 -16.1146 -16.1143 -15.9967 -15.9965 -15.9464 -15.9462
   -15.8438 -15.8438  -0.2072  -0.2071   5.6066   5.6066

          k =-0.5000-1.0000 0.0000 (   848 PWs)   bands (ev):

   -16.2110 -16.2109 -16.0710 -16.0707 -16.0197 -16.0195 -15.9871 -15.9868
   -15.8434 -15.8434  -0.1049  -0.1048   4.7617   4.7624

     highest occupied level (ev):     8.7422

!    total energy              =    -427.25176212 Ry
     Harris-Foulkes estimate   =    -427.25176212 Ry
     estimated scf accuracy    <          7.5E-09 Ry

     The total energy is the sum of the following terms:

     one-electron contribution =    -276.46172154 Ry
     hartree contribution      =     164.43008336 Ry
     xc contribution           =    -116.62677581 Ry
     ewald contribution        =    -198.59334812 Ry

     convergence has been achieved in   6 iterations

     Writing output data file Ge.save

     init_run     :      0.61s CPU      1.21s WALL (       1 calls)
     electrons    :      2.48s CPU      3.14s WALL (       1 calls)

     Called by init_run:
     wfcinit      :      0.18s CPU      0.34s WALL (       1 calls)
     potinit      :      0.05s CPU      0.07s WALL (       1 calls)

     Called by electrons:
     c_bands      :      1.74s CPU      2.26s WALL (       7 calls)
     sum_band     :      0.53s CPU      0.60s WALL (       7 calls)
     v_of_rho     :      0.08s CPU      0.09s WALL (       7 calls)
     newd         :      0.19s CPU      0.20s WALL (       7 calls)
     mix_rho      :      0.00s CPU      0.01s WALL (       7 calls)

     Called by c_bands:
     init_us_2    :      0.04s CPU      0.04s WALL (     120 calls)
     cegterg      :      1.66s CPU      2.17s WALL (      56 calls)

     Called by *egterg:
     h_psi        :      1.41s CPU      1.92s WALL (     182 calls)
     s_psi        :      0.06s CPU      0.07s WALL (     182 calls)
     g_psi        :      0.00s CPU      0.00s WALL (     118 calls)
     cdiaghg      :      0.08s CPU      0.17s WALL (     166 calls)

     Called by h_psi:
     add_vuspsi   :      0.06s CPU      0.11s WALL (     182 calls)

     General routines
     calbec       :      0.14s CPU      0.15s WALL (     238 calls)
     fft          :      0.11s CPU      0.20s WALL (      93 calls)
     fftw         :      1.47s CPU      1.95s WALL (    4892 calls)
     davcio       :      0.00s CPU      0.00s WALL (       8 calls)

     Parallel routines
     fft_scatter  :      0.49s CPU      0.70s WALL (    4985 calls)

     PWSCF        :     3.34s CPU         4.90s WALL


   This run was terminated on:  21:15:46  25May2020            

=------------------------------------------------------------------------------=
   JOB DONE.
=------------------------------------------------------------------------------=
