
     Program PWSCF v.6.5 starts on 15Jun2020 at 16:35:43 

     This program is part of the open-source Quantum ESPRESSO suite
     for quantum simulation of materials; please cite
         "P. Giannozzi et al., J. Phys.:Condens. Matter 21 395502 (2009);
         "P. Giannozzi et al., J. Phys.:Condens. Matter 29 465901 (2017);
          URL http://www.quantum-espresso.org", 
     in publications or presentations arising from this work. More details at
     http://www.quantum-espresso.org/quote

     Parallel version (MPI), running on    16 processors

     MPI processes distributed on     1 nodes
     R & G space division:  proc/nbgrp/npool/nimage =      16
     Reading input from knbo_relax_1.in

     Current dimensions of program PWSCF are:
     Max number of different atomic species (ntypx) = 10
     Max number of k-points (npk) =  40000
     Max angular momentum in pseudopotentials (lmaxx) =  3
               file Nb.pbe-spn-kjpaw_psl.0.3.0.UPF: wavefunction(s)  4S 4P renormalized
               file K.pbe-spn-kjpaw_psl.1.0.0.UPF: wavefunction(s)  3S renormalized
               file O.pbe-n-kjpaw_psl.0.1.UPF: wavefunction(s)  2P renormalized

     Subspace diagonalization in iterative solution of the eigenvalue problem:
     a serial algorithm will be used

 
     Parallelization info
     --------------------
     sticks:   dense  smooth     PW     G-vecs:    dense   smooth      PW
     Min         553     553    155                15734    15734    2348
     Max         555     555    157                15735    15735    2349
     Sum        8865    8865   2495               251747   251747   37577
 


     bravais-lattice index     =            8
     lattice parameter (alat)  =      14.7966  a.u.
     unit-cell volume          =   11335.9946 (a.u.)^3
     number of atoms/cell      =          107
     number of atomic types    =            3
     number of electrons       =       855.00
     number of Kohn-Sham states=          514
     kinetic-energy cutoff     =      30.0000  Ry
     charge density cutoff     =     120.0000  Ry
     convergence threshold     =      1.0E-05
     mixing beta               =       0.4000
     number of iterations used =            8  plain     mixing
     Exchange-correlation= SLA PW PBX PBC
                           (   1   4   3   4   0   0   0)
     nstep                     =           50


     celldm(1)=  14.796556  celldm(2)=   4.241378  celldm(3)=   0.825032
     celldm(4)=   0.000000  celldm(5)=   0.000000  celldm(6)=   0.000000

     crystal axes: (cart. coord. in units of alat)
               a(1) = (   1.000000   0.000000   0.000000 )  
               a(2) = (   0.000000   4.241378   0.000000 )  
               a(3) = (   0.000000   0.000000   0.825032 )  

     reciprocal axes: (cart. coord. in units 2 pi/alat)
               b(1) = (  1.000000  0.000000  0.000000 )  
               b(2) = (  0.000000  0.235772  0.000000 )  
               b(3) = (  0.000000  0.000000  1.212074 )  


     PseudoPot. # 1 for Nb read from file:
     ./Nb.pbe-spn-kjpaw_psl.0.3.0.UPF
     MD5 check sum: 411d72ad547312f8017e2943ceca08cc
     Pseudo is Projector augmented-wave + core cor, Zval = 13.0
     Generated using "atomic" code by A. Dal Corso v.5.0.99 svn rev. 10869
     Shape of augmentation charge: PSQ
     Using radial grid of 1227 points,  6 beta functions with: 
                l(1) =   0
                l(2) =   0
                l(3) =   1
                l(4) =   1
                l(5) =   2
                l(6) =   2
     Q(r) pseudized with 0 coefficients 


     PseudoPot. # 2 for K  read from file:
     ./K.pbe-spn-kjpaw_psl.1.0.0.UPF
     MD5 check sum: 7d58810084cac21f60fbe77ea2b688fd
     Pseudo is Projector augmented-wave + core cor, Zval =  9.0
     Generated using "atomic" code by A. Dal Corso v.5.1
     Shape of augmentation charge: PSQ
     Using radial grid of 1165 points,  6 beta functions with: 
                l(1) =   0
                l(2) =   0
                l(3) =   1
                l(4) =   1
                l(5) =   2
                l(6) =   2
     Q(r) pseudized with 0 coefficients 


     PseudoPot. # 3 for O  read from file:
     ./O.pbe-n-kjpaw_psl.0.1.UPF
     MD5 check sum: 0234752ac141de4415c5fc33072bef88
     Pseudo is Projector augmented-wave + core cor, Zval =  6.0
     Generated using "atomic" code by A. Dal Corso v.5.0.99 svn rev. 10869
     Shape of augmentation charge: BESSEL
     Using radial grid of 1095 points,  4 beta functions with: 
                l(1) =   0
                l(2) =   0
                l(3) =   1
                l(4) =   1
     Q(r) pseudized with 0 coefficients 


     atomic species   valence    mass     pseudopotential
        Nb            13.00    92.90638     Nb( 1.00)
        K              9.00    39.09830     K ( 1.00)
        O              6.00    15.99940     O ( 1.00)

     No symmetry found



   Cartesian axes

     site n.     atom                  positions (alat units)
         1           Nb  tau(   1) = (   0.2562277   1.8253102   0.3866222  )
         2           Nb  tau(   2) = (   0.7562277   0.3482066   0.0537862  )
         3           Nb  tau(   3) = (   0.7562277   2.4688969   0.7991382  )
         4           Nb  tau(   4) = (   0.2562277   3.9459992   0.4663022  )
         5           Nb  tau(   5) = (   0.2640977   0.3484188   0.0504045  )
         6           Nb  tau(   6) = (   0.7640977   1.8250982   0.3900041  )
         7           Nb  tau(   7) = (   0.7640977   3.9457872   0.4629204  )
         8           Nb  tau(   8) = (   0.2640977   2.4691091   0.8025201  )
         9           Nb  tau(   9) = (   0.2551167   1.6178645   0.0187397  )
        10           Nb  tau(  10) = (   0.7551167   0.5556525   0.4216688  )
        11           Nb  tau(  11) = (   0.7551167   2.6763428   0.4312557  )
        12           Nb  tau(  12) = (   0.2551167   3.7385535   0.0091529  )
        13           Nb  tau(  13) = (   0.2709378   0.5473393   0.4120332  )
        14           Nb  tau(  14) = (   0.7709378   1.6261775   0.0283752  )
        15           Nb  tau(  15) = (   0.7709378   3.7468665   0.8245492  )
        16           Nb  tau(  16) = (   0.2709378   2.6680296   0.4408912  )
        17           Nb  tau(  17) = (   0.5179387   1.4914290   0.3332006  )
        18           Nb  tau(  18) = (   0.0179387   0.6820880   0.1072079  )
        19           Nb  tau(  19) = (   0.0179387   2.8027783   0.7457166  )
        20           Nb  tau(  20) = (   0.5179387   3.6121180   0.5197239  )
        21           Nb  tau(  21) = (   0.5176387   1.2984462   0.7814405  )
        22           Nb  tau(  22) = (   0.0176387   0.8750706   0.4840000  )
        23           Nb  tau(  23) = (   0.0176387   2.9957609   0.3689245  )
        24           Nb  tau(  24) = (   0.5176387   3.4191352   0.0714840  )
        25           K   tau(  25) = (   0.5046457   2.0237644   0.7573932  )
        26           K   tau(  26) = (   0.0046457   0.1497526   0.5080471  )
        27           K   tau(  27) = (   0.0046457   2.2704429   0.3448773  )
        28           K   tau(  28) = (   0.5046457   4.1444534   0.0955312  )
        29           K   tau(  29) = (   0.0071558   2.0102344   0.7526106  )
        30           K   tau(  30) = (   0.5071558   0.1632826   0.5128299  )
        31           K   tau(  31) = (   0.0071558   4.1309234   0.1003139  )
        32           K   tau(  32) = (   0.0061538   1.4342552   0.4956957  )
        33           K   tau(  33) = (   0.5061538   0.7392617   0.7697448  )
        34           K   tau(  34) = (   0.5061538   2.8599520   0.0831797  )
        35           K   tau(  35) = (   0.0061538   3.5549442   0.3572289  )
        36           K   tau(  36) = (   0.0104618   1.1776519   0.0509217  )
        37           K   tau(  37) = (   0.5104618   0.9958651   0.3894867  )
        38           K   tau(  38) = (   0.5104618   3.1165554   0.4634377  )
        39           K   tau(  39) = (   0.0104618   3.2983409   0.8020027  )
        40           O   tau(  40) = (   0.2994167   2.0280057   0.4498203  )
        41           O   tau(  41) = (   0.7994167   0.1455112   0.8156202  )
        42           O   tau(  42) = (   0.7994167   2.2662015   0.0373043  )
        43           O   tau(  43) = (   0.2994167   4.1486948   0.4031042  )
        44           O   tau(  44) = (   0.7425008   2.0534328   0.4501308  )
        45           O   tau(  45) = (   0.2425008   0.1200842   0.8153097  )
        46           O   tau(  46) = (   0.2425008   2.2407745   0.0376148  )
        47           O   tau(  47) = (   0.7425008   4.1741218   0.4027937  )
        48           O   tau(  48) = (   0.2693618   1.6999351   0.6307814  )
        49           O   tau(  49) = (   0.7693618   0.4735819   0.6346590  )
        50           O   tau(  50) = (   0.7693618   2.5942722   0.2182654  )
        51           O   tau(  51) = (   0.2693618   3.8206241   0.2221430  )
        52           O   tau(  52) = (   0.7751678   1.7386165   0.6461344  )
        53           O   tau(  53) = (   0.2751678   0.4349004   0.6193060  )
        54           O   tau(  54) = (   0.2751678   2.5555907   0.2336184  )
        55           O   tau(  55) = (   0.7751678   3.8593055   0.2067900  )
        56           O   tau(  56) = (   0.2790598   1.3755545   0.7739236  )
        57           O   tau(  57) = (   0.7790598   0.7979625   0.4915169  )
        58           O   tau(  58) = (   0.7790598   2.9186527   0.3614077  )
        59           O   tau(  59) = (   0.2790598   3.4962436   0.0790009  )
        60           O   tau(  60) = (   0.7705008   1.3765174   0.8060503  )
        61           O   tau(  61) = (   0.2705008   0.7969996   0.4593900  )
        62           O   tau(  62) = (   0.2705008   2.9176899   0.3935344  )
        63           O   tau(  63) = (   0.7705008   3.4972064   0.0468741  )
        64           O   tau(  64) = (   0.2615687   1.8433361   0.1417074  )
        65           O   tau(  65) = (   0.7615687   0.3301808   0.2987011  )
        66           O   tau(  66) = (   0.7615687   2.4508711   0.5542234  )
        67           O   tau(  67) = (   0.2615687   3.9640252   0.7112171  )
        68           O   tau(  68) = (   0.7654097   1.8935328   0.1506627  )
        69           O   tau(  69) = (   0.2654097   0.2799842   0.2897457  )
        70           O   tau(  70) = (   0.2654097   2.4006745   0.5631787  )
        71           O   tau(  71) = (   0.7654097   4.0142218   0.7022617  )
        72           O   tau(  72) = (   0.2751627   1.5532259   0.2959860  )
        73           O   tau(  73) = (   0.7751627   0.6202911   0.1444226  )
        74           O   tau(  74) = (   0.7751627   2.7409814   0.7085019  )
        75           O   tau(  75) = (   0.2751627   3.6739149   0.5569386  )
        76           O   tau(  76) = (   0.7448008   1.5219881   0.2804208  )
        77           O   tau(  77) = (   0.2448008   0.6515289   0.1599876  )
        78           O   tau(  78) = (   0.2448008   2.7722192   0.6929368  )
        79           O   tau(  79) = (   0.7448008   3.6426771   0.5725036  )
        80           O   tau(  80) = (   0.5161857   1.5998386   0.0644720  )
        81           O   tau(  81) = (   0.0161857   0.5736783   0.3759364  )
        82           O   tau(  82) = (   0.0161857   2.6943686   0.4769880  )
        83           O   tau(  83) = (   0.5161857   3.7205276   0.7884524  )
        84           O   tau(  84) = (   0.0130028   1.5826186   0.0399042  )
        85           O   tau(  85) = (   0.5130028   0.5908983   0.4005042  )
        86           O   tau(  86) = (   0.5130028   2.7115886   0.4524202  )
        87           O   tau(  87) = (   0.0130028   3.7033077   0.8130202  )
        88           O   tau(  88) = (   0.4916958   1.2674885   0.2062323  )
        89           O   tau(  89) = (   0.9916958   0.9060285   0.2341761  )
        90           O   tau(  90) = (   0.9916958   3.0267188   0.6187483  )
        91           O   tau(  91) = (   0.4916958   3.3881775   0.6466921  )
        92           O   tau(  92) = (   0.0062381   1.7979958   0.4122354  )
        93           O   tau(  93) = (   0.5062381   0.3755212   0.0281732  )
        94           O   tau(  94) = (   0.5062381   2.4962115   0.8247513  )
        95           O   tau(  95) = (   0.0062381   3.9186848   0.4406891  )
        96           O   tau(  96) = (   0.4958277   1.7491775   0.4042243  )
        97           O   tau(  97) = (   0.9958277   0.4243395   0.0361842  )
        98           O   tau(  98) = (   0.9958277   2.5450298   0.8167402  )
        99           O   tau(  99) = (   0.4958277   3.8698665   0.4487001  )
       100           O   tau( 100) = (   0.5320898   1.0702165   0.7360670  )
       101           O   tau( 101) = (   0.0320898   1.1033005   0.5293734  )
       102           O   tau( 102) = (   0.0320898   3.2239895   0.3235511  )
       103           O   tau( 103) = (   0.5320898   3.1909068   0.1168575  )
       104           O   tau( 104) = (   0.5345277   1.3996456   0.5398547  )
       105           O   tau( 105) = (   0.0345277   0.7738714   0.7255858  )
       106           O   tau( 106) = (   0.0345277   2.8945617   0.1273387  )
       107           O   tau( 107) = (   0.5345277   3.5203346   0.3130699  )

     number of k points=     4  Gaussian smearing, width (Ry)=  0.0500
                       cart. coord. in units 2pi/alat
        k(    1) = (   0.0000000   0.0000000   0.0000000), wk =   0.5000000
        k(    2) = (   0.0000000   0.0000000  -0.6060372), wk =   0.5000000
        k(    3) = (  -0.5000000   0.0000000   0.0000000), wk =   0.5000000
        k(    4) = (  -0.5000000   0.0000000  -0.6060372), wk =   0.5000000

     Dense  grid:   251747 G-vectors     FFT dimensions: (  54, 225,  45)

     Estimated max dynamical RAM per process >     518.84 MB

     Estimated total dynamical RAM >       8.11 GB

     Check: negative core charge=   -0.000190

     Initial potential from superposition of free atoms

     starting charge  854.66651, renormalised to  855.00000
     Starting wfcs are  632 randomized atomic wfcs
     Checking if some PAW data can be deallocated... 

     total cpu time spent up to now is       61.3 secs

     Self-consistent Calculation

     iteration #  1     ecut=    30.00 Ry     beta= 0.40
     Davidson diagonalization with overlap
     ethr =  1.00E-02,  avg # of iterations =  3.0

     total cpu time spent up to now is      226.3 secs

     total energy              =  -12538.59368058 Ry
     Harris-Foulkes estimate   =  -12569.89530349 Ry
     estimated scf accuracy    <      55.14386115 Ry

     iteration #  2     ecut=    30.00 Ry     beta= 0.40
     Davidson diagonalization with overlap
     ethr =  6.45E-03,  avg # of iterations =  4.0

     total cpu time spent up to now is      505.1 secs

     total energy              =  -12525.94063374 Ry
     Harris-Foulkes estimate   =  -12563.56933410 Ry
     estimated scf accuracy    <     150.51419753 Ry

     iteration #  3     ecut=    30.00 Ry     beta= 0.40
     Davidson diagonalization with overlap
     ethr =  6.45E-03,  avg # of iterations =  6.0

     total cpu time spent up to now is      971.9 secs

     total energy              =  -12379.21261378 Ry
     Harris-Foulkes estimate   =  -12713.53711049 Ry
     estimated scf accuracy    <   20278.80434750 Ry

     iteration #  4     ecut=    30.00 Ry     beta= 0.40
     Davidson diagonalization with overlap
     ethr =  6.45E-03,  avg # of iterations = 10.0

     total cpu time spent up to now is     1460.8 secs

     total energy              =  -12549.56052679 Ry
     Harris-Foulkes estimate   =  -12560.35490006 Ry
     estimated scf accuracy    <     130.49483196 Ry

     iteration #  5     ecut=    30.00 Ry     beta= 0.40
     Davidson diagonalization with overlap
     ethr =  6.45E-03,  avg # of iterations =  5.8

     total cpu time spent up to now is     1723.7 secs

     total energy              =  -12537.31542083 Ry
     Harris-Foulkes estimate   =  -12565.46813059 Ry
     estimated scf accuracy    <    1255.12350194 Ry

     iteration #  6     ecut=    30.00 Ry     beta= 0.40
     Davidson diagonalization with overlap
     ethr =  6.45E-03,  avg # of iterations =  5.5

     total cpu time spent up to now is     1949.4 secs

     total energy              =  -12556.65804591 Ry
     Harris-Foulkes estimate   =  -12557.87578988 Ry
     estimated scf accuracy    <       6.97429687 Ry

     iteration #  7     ecut=    30.00 Ry     beta= 0.40
     Davidson diagonalization with overlap
     ethr =  8.16E-04,  avg # of iterations =  8.2

     total cpu time spent up to now is     2251.3 secs

     total energy              =  -12556.40664522 Ry
     Harris-Foulkes estimate   =  -12556.93413978 Ry
     estimated scf accuracy    <       2.75149572 Ry

     iteration #  8     ecut=    30.00 Ry     beta= 0.40
     Davidson diagonalization with overlap
     ethr =  3.22E-04,  avg # of iterations =  6.0

     negative rho (up, down):  4.559E-07 0.000E+00

     total cpu time spent up to now is     2468.7 secs

     total energy              =  -12556.23091232 Ry
     Harris-Foulkes estimate   =  -12556.55633985 Ry
     estimated scf accuracy    <       1.09238652 Ry

     iteration #  9     ecut=    30.00 Ry     beta= 0.40
     Davidson diagonalization with overlap
     ethr =  1.28E-04,  avg # of iterations =  6.5

     negative rho (up, down):  1.981E-05 0.000E+00

     total cpu time spent up to now is     2737.8 secs

     total energy              =  -12556.38379704 Ry
     Harris-Foulkes estimate   =  -12556.41286298 Ry
     estimated scf accuracy    <       0.14078092 Ry

     iteration # 10     ecut=    30.00 Ry     beta= 0.40
     Davidson diagonalization with overlap
     ethr =  1.65E-05,  avg # of iterations =  8.0

     negative rho (up, down):  5.249E-05 0.000E+00

     total cpu time spent up to now is     3080.8 secs

     total energy              =  -12556.38654535 Ry
     Harris-Foulkes estimate   =  -12556.41440317 Ry
     estimated scf accuracy    <       0.14849981 Ry

     iteration # 11     ecut=    30.00 Ry     beta= 0.40
     Davidson diagonalization with overlap
     ethr =  1.65E-05,  avg # of iterations =  3.5

     negative rho (up, down):  3.958E-05 0.000E+00

     total cpu time spent up to now is     3244.3 secs

     total energy              =  -12556.38219352 Ry
     Harris-Foulkes estimate   =  -12556.39839037 Ry
     estimated scf accuracy    <       0.05112955 Ry

     iteration # 12     ecut=    30.00 Ry     beta= 0.40
     Davidson diagonalization with overlap
     ethr =  5.98E-06,  avg # of iterations =  6.2

     negative rho (up, down):  5.410E-05 0.000E+00

     total cpu time spent up to now is     3530.1 secs

     total energy              =  -12556.38879320 Ry
     Harris-Foulkes estimate   =  -12556.39419069 Ry
     estimated scf accuracy    <       0.02093509 Ry

     iteration # 13     ecut=    30.00 Ry     beta= 0.40
     Davidson diagonalization with overlap
     ethr =  2.45E-06,  avg # of iterations = 10.0

     negative rho (up, down):  7.630E-05 0.000E+00

     total cpu time spent up to now is     3879.7 secs

     total energy              =  -12556.38902662 Ry
     Harris-Foulkes estimate   =  -12556.39366321 Ry
     estimated scf accuracy    <       0.02629581 Ry

     iteration # 14     ecut=    30.00 Ry     beta= 0.40
     Davidson diagonalization with overlap
     ethr =  2.45E-06,  avg # of iterations = 12.2

     negative rho (up, down):  7.851E-05 0.000E+00

     total cpu time spent up to now is     4248.9 secs

     total energy              =  -12556.38941058 Ry
     Harris-Foulkes estimate   =  -12556.39219231 Ry
     estimated scf accuracy    <       0.00675600 Ry

     iteration # 15     ecut=    30.00 Ry     beta= 0.40
     Davidson diagonalization with overlap
     ethr =  7.90E-07,  avg # of iterations = 12.0

     negative rho (up, down):  7.773E-05 0.000E+00

     total cpu time spent up to now is     4710.8 secs

     total energy              =  -12556.38885283 Ry
     Harris-Foulkes estimate   =  -12556.39441402 Ry
     estimated scf accuracy    <       0.03848975 Ry

     iteration # 16     ecut=    30.00 Ry     beta= 0.40
     Davidson diagonalization with overlap
     ethr =  7.90E-07,  avg # of iterations = 11.8

     negative rho (up, down):  8.207E-05 0.000E+00

     total cpu time spent up to now is     5097.6 secs

     total energy              =  -12556.39136729 Ry
     Harris-Foulkes estimate   =  -12556.39148027 Ry
     estimated scf accuracy    <       0.00057909 Ry

     iteration # 17     ecut=    30.00 Ry     beta= 0.40
     Davidson diagonalization with overlap
     ethr =  6.77E-08,  avg # of iterations =  2.0

     negative rho (up, down):  8.389E-05 0.000E+00

     total cpu time spent up to now is     5238.5 secs

     total energy              =  -12556.39142431 Ry
     Harris-Foulkes estimate   =  -12556.39145047 Ry
     estimated scf accuracy    <       0.00009617 Ry

     iteration # 18     ecut=    30.00 Ry     beta= 0.40
     Davidson diagonalization with overlap
     ethr =  1.12E-08,  avg # of iterations =  3.0

     negative rho (up, down):  8.721E-05 0.000E+00

     total cpu time spent up to now is     5412.3 secs

     total energy              =  -12556.39143972 Ry
     Harris-Foulkes estimate   =  -12556.39144596 Ry
     estimated scf accuracy    <       0.00003641 Ry

     iteration # 19     ecut=    30.00 Ry     beta= 0.40
     Davidson diagonalization with overlap
     ethr =  4.26E-09,  avg # of iterations =  3.0

     negative rho (up, down):  8.924E-05 0.000E+00

     total cpu time spent up to now is     5575.7 secs

     End of self-consistent calculation

          k = 0.0000 0.0000 0.0000 ( 31457 PWs)   bands (ev):

   -49.6321 -49.6066 -49.3077 -49.2847 -49.2713 -49.2344 -49.2091 -49.0597
   -48.9767 -48.9612 -48.9382 -48.9236 -48.9007 -48.8398 -48.8243 -48.8068
   -48.7163 -48.7040 -48.7011 -48.6743 -48.6117 -48.5813 -48.2197 -48.1307
   -25.9457 -25.9201 -25.8740 -25.8486 -25.7137 -25.6877 -25.6247 -25.6237
   -25.6009 -25.5468 -25.5240 -25.5081 -25.5024 -25.4969 -25.4879 -25.4876
   -25.4751 -25.4724 -25.4492 -25.4220 -25.4091 -25.3899 -25.3890 -25.3883
   -25.3853 -25.3744 -25.2992 -25.2948 -25.2744 -25.2459 -25.2269 -25.2210
   -25.1833 -25.1812 -25.1768 -25.1561 -25.1402 -25.1383 -25.1247 -25.0771
   -25.0763 -25.0577 -25.0503 -25.0478 -25.0358 -25.0248 -25.0167 -24.9995
   -24.9874 -24.9790 -24.9760 -24.9537 -24.9493 -24.9226 -24.9168 -24.9014
   -24.8877 -24.8705 -24.8514 -24.8476 -24.8290 -24.8022 -24.7915 -24.7742
   -24.7491 -24.7148 -24.6857 -24.6430 -24.4512 -24.4125 -24.3441 -24.2902
   -22.5768 -22.5694 -22.3962 -22.3892 -22.1908 -22.1510 -22.0313 -22.0005
   -21.9746 -21.9711 -21.8921 -21.8324 -21.8205 -21.7030 -21.6335 -12.3452
   -12.3178 -12.0444 -11.8973 -11.8739 -11.8646 -11.7114 -11.6890 -11.5551
   -11.4469 -11.4242 -11.3824 -11.3695 -11.3374 -11.3249 -11.2621 -11.2361
   -11.1809 -11.1276 -11.0835 -11.0708 -11.0557 -10.9817 -10.9727 -10.9559
   -10.9434 -10.8725 -10.8569 -10.8341 -10.8292 -10.8025 -10.7725 -10.7587
   -10.6904 -10.6783 -10.6704 -10.6015 -10.5761 -10.5623 -10.5478 -10.5219
   -10.5044 -10.4944 -10.4726 -10.4620 -10.4371 -10.3812 -10.3364 -10.2723
   -10.2446 -10.2144 -10.2136 -10.1996 -10.1242 -10.1236 -10.0951 -10.0942
   -10.0393 -10.0383  -9.9997  -9.9815  -9.9303  -9.8377  -9.7520  -9.5827
    -9.5191  -9.5179  -9.4553  -6.1456  -6.1234  -6.0914  -6.0819  -6.0509
    -6.0093  -5.9169  -5.9060  -5.8928  -5.8688  -5.8395  -5.8040  -5.7925
    -5.7509  -5.6930  -5.6551  -5.6536  -5.6272  -5.6129  -5.5703  -5.5326
    -5.5174  -5.5108  -5.5022  -5.4872  -5.4810  -5.4724  -5.4723  -5.4571
    -5.4081  -5.4035  -5.3992  -5.3769  -5.3727  -5.3398  -5.3354  -5.3316
    -5.2970  -5.2574  -5.2438  -5.1852  -5.1642  -5.1027  -5.0799  -5.0655
     0.0341   0.0609   0.2589   0.2864   0.3445   0.4421   0.4641   0.5578
     0.5638   0.6541   0.6787   0.7138   0.8299   0.8656   0.8883   0.9361
     0.9662   0.9857   1.0177   1.1614   1.1925   1.2108   1.2311   1.2507
     1.2625   1.2934   1.3914   1.4042   1.4335   1.4486   1.4881   1.5179
     1.5215   1.5567   1.5684   1.5774   1.6447   1.7262   1.7525   1.7935
     1.8157   1.8392   1.8979   1.9089   1.9127   1.9349   1.9704   2.0011
     2.0311   2.0407   2.0706   2.0929   2.1122   2.1187   2.1694   2.1992
     2.2096   2.2364   2.2408   2.2813   2.3119   2.3457   2.3851   2.3984
     2.4416   2.4548   2.4777   2.5026   2.5329   2.5491   2.5620   2.6026
     2.6434   2.6678   2.6851   2.7102   2.7456   2.8208   2.8263   2.8539
     2.8794   2.8872   2.9123   2.9165   2.9435   2.9843   3.0064   3.0086
     3.0274   3.0604   3.1058   3.1982   3.2181   3.2328   3.2385   3.2697
     3.2910   3.3266   3.3470   3.3608   3.3795   3.4005   3.4087   3.4548
     3.4830   3.5044   3.5370   3.5543   3.5778   3.6093   3.6345   3.6523
     3.6617   3.6705   3.6838   3.7017   3.7310   3.7536   3.7857   3.7904
     3.8187   3.8436   3.8625   3.9012   3.9074   3.9192   3.9478   3.9659
     3.9832   3.9911   4.0126   4.0349   4.0500   4.0857   4.0996   4.1082
     4.1270   4.1648   4.2016   4.2061   4.2387   4.2494   4.2595   4.2723
     4.2817   4.3065   4.3198   4.3622   4.3922   4.4059   4.4178   4.4297
     4.4471   4.4568   4.4747   4.5138   4.5194   4.5520   4.5569   4.5771
     4.5941   4.6124   4.6142   4.6427   4.6708   4.6821   4.7099   4.7251
     4.7626   4.7655   4.7872   4.7990   4.8230   4.8379   4.8618   4.8851
     4.8985   4.9077   4.9221   4.9404   4.9657   4.9731   4.9946   5.0218
     5.0397   5.0574   5.0721   5.0903   5.1519   5.1613   5.1876   5.2362
     5.2430   5.2573   5.2703   5.3146   5.3665   5.3954   5.4319   5.5315
     5.5629   5.6390   5.6916   5.7080   7.9956   8.0225   8.2511   8.2883
     8.3593   8.5969   8.6672   8.8090   8.8281   8.8722   8.8981   8.9338
     9.1386   9.1801   9.2149   9.2635   9.2878   9.3566   9.3846   9.4296
     9.5114   9.5462   9.6609   9.6857   9.7185   9.7541   9.7734   9.7840
     9.7998   9.8293   9.8695   9.9455  10.0086  10.0298  10.0403  10.1188
    10.2039  10.2111  10.2253  10.2552  10.2790  10.3341  10.3698  10.3931
    10.4066  10.4201  10.4259  10.4605  10.4750  10.5214  10.5426  10.5536
    10.5880  10.5940  10.6303  10.6527  10.6717  10.6925  10.6975  10.7193
    10.7535  10.7691  10.7965  10.8396  10.9806  10.9981  11.0527  11.0701
    11.0906  11.1392  11.2101  11.2500  11.3584  11.4930  11.5312  11.5468
    11.6296  11.6870  11.8121  11.8194  11.8565  11.9353  12.0530  12.0902
    12.1996  12.2545

          k = 0.0000 0.0000-0.6060 ( 31394 PWs)   bands (ev):

   -49.6319 -49.6065 -49.3076 -49.2847 -49.2713 -49.2343 -49.2090 -49.0596
   -48.9747 -48.9631 -48.9360 -48.9258 -48.9006 -48.8398 -48.8243 -48.8065
   -48.7163 -48.7041 -48.7007 -48.6743 -48.6119 -48.5813 -48.2197 -48.1307
   -25.9409 -25.9151 -25.8706 -25.8452 -25.7179 -25.6923 -25.6214 -25.6209
   -25.5982 -25.5442 -25.5249 -25.5058 -25.5028 -25.4941 -25.4867 -25.4852
   -25.4725 -25.4709 -25.4302 -25.4036 -25.4019 -25.3975 -25.3899 -25.3853
   -25.3826 -25.3778 -25.2967 -25.2840 -25.2701 -25.2418 -25.2350 -25.2211
   -25.1955 -25.1814 -25.1730 -25.1583 -25.1388 -25.1263 -25.1192 -25.0874
   -25.0787 -25.0633 -25.0472 -25.0463 -25.0385 -25.0257 -25.0227 -25.0060
   -25.0005 -24.9854 -24.9761 -24.9490 -24.9455 -24.9304 -24.9256 -24.9014
   -24.8905 -24.8713 -24.8622 -24.8528 -24.8282 -24.8016 -24.7960 -24.7753
   -24.7478 -24.7145 -24.6921 -24.6420 -24.4509 -24.4199 -24.3438 -24.2983
   -22.5760 -22.5690 -22.3966 -22.3897 -22.1900 -22.1503 -22.0319 -21.9951
   -21.9798 -21.9716 -21.8902 -21.8342 -21.8196 -21.7038 -21.6334 -12.2687
   -12.2412 -11.9693 -11.8211 -11.8011 -11.7814 -11.7760 -11.7510 -11.4792
   -11.4022 -11.3779 -11.3688 -11.3279 -11.2804 -11.2559 -11.2444 -11.2226
   -11.2207 -11.1699 -11.0930 -11.0690 -11.0445 -11.0235 -10.9953 -10.9656
   -10.9515 -10.9368 -10.8916 -10.8545 -10.8324 -10.7818 -10.7584 -10.7355
   -10.7274 -10.7150 -10.6689 -10.6234 -10.6032 -10.5837 -10.5662 -10.5453
   -10.5266 -10.5126 -10.4876 -10.4783 -10.4733 -10.4567 -10.3797 -10.3460
   -10.2662 -10.2601 -10.2169 -10.2024 -10.1696 -10.1240 -10.1071 -10.0961
   -10.0712 -10.0389  -9.9873  -9.9605  -9.9303  -9.8364  -9.7841  -9.5817
    -9.5203  -9.5129  -9.4607  -6.1453  -6.1404  -6.0685  -6.0644  -6.0307
    -6.0256  -5.9246  -5.9190  -5.8821  -5.8762  -5.8242  -5.8174  -5.7672
    -5.7271  -5.6902  -5.6606  -5.6508  -5.6178  -5.5798  -5.5743  -5.5383
    -5.5330  -5.5140  -5.4939  -5.4867  -5.4731  -5.4715  -5.4523  -5.4480
    -5.4309  -5.3947  -5.3945  -5.3823  -5.3675  -5.3529  -5.3403  -5.3316
    -5.2962  -5.2406  -5.2349  -5.1940  -5.1696  -5.0927  -5.0781  -5.0758
     0.0427   0.0693   0.3510   0.3732   0.4025   0.4795   0.4990   0.5710
     0.6524   0.7065   0.7299   0.7977   0.8052   0.8320   0.8588   0.8824
     0.9109   1.0514   1.0543   1.1020   1.1286   1.1335   1.1808   1.2038
     1.2218   1.2343   1.3154   1.3399   1.3622   1.4202   1.4267   1.4384
     1.4497   1.5301   1.5386   1.5521   1.5867   1.5944   1.6225   1.6787
     1.7093   1.7631   1.7911   1.8158   1.8439   1.8704   1.8887   1.8912
     1.9286   1.9489   2.0805   2.0895   2.1136   2.1191   2.1348   2.1866
     2.2092   2.2538   2.2887   2.2892   2.3140   2.4371   2.4438   2.4551
     2.4687   2.4972   2.5124   2.5670   2.5965   2.6176   2.6301   2.6877
     2.7281   2.7405   2.7566   2.7702   2.7769   2.7855   2.8354   2.9106
     2.9401   2.9670   3.0079   3.0300   3.0650   3.0849   3.1002   3.1235
     3.1480   3.1639   3.1680   3.1773   3.2066   3.2273   3.2801   3.3259
     3.3303   3.3521   3.3744   3.4658   3.4896   3.4952   3.5142   3.5332
     3.5649   3.5748   3.6155   3.6209   3.6267   3.6568   3.6800   3.7116
     3.7235   3.7681   3.7778   3.7907   3.7949   3.7999   3.8255   3.8356
     3.8560   3.8682   3.8767   3.9177   3.9431   3.9566   3.9911   3.9983
     4.0128   4.0268   4.0646   4.0852   4.1044   4.1084   4.1140   4.1325
     4.1540   4.1544   4.1806   4.2175   4.2398   4.2559   4.2894   4.2949
     4.3130   4.3174   4.3398   4.3643   4.3851   4.4099   4.4295   4.4483
     4.4507   4.4623   4.4640   4.4803   4.4990   4.5031   4.5263   4.5390
     4.5629   4.5851   4.6042   4.6281   4.6497   4.6596   4.6679   4.6769
     4.6975   4.7134   4.7304   4.7606   4.7812   4.8068   4.8316   4.8396
     4.8660   4.8804   4.8971   4.9063   4.9257   4.9818   4.9843   5.0030
     5.0249   5.0338   5.0400   5.0456   5.0568   5.1248   5.1577   5.1815
     5.2022   5.2220   5.2437   5.2471   5.2915   5.3239   5.3937   5.5570
     5.5900   5.6401   5.6562   5.7100   8.1556   8.1809   8.4488   8.4684
     8.5005   8.7588   8.7924   8.8217   8.9020   9.0336   9.0678   9.0934
     9.1320   9.1337   9.1581   9.2178   9.2444   9.2705   9.2949   9.4016
     9.4236   9.4301   9.4336   9.5311   9.5534   9.5817   9.6453   9.6617
     9.6864   9.8059   9.8314   9.8650   9.8653   9.8982   9.9986  10.0190
    10.0449  10.0530  10.0577  10.0705  10.0866  10.1865  10.2317  10.2453
    10.2787  10.2822  10.3163  10.3447  10.3622  10.4864  10.4963  10.5167
    10.5498  10.5802  10.5871  10.5951  10.6078  10.6541  10.6806  10.7598
    10.7875  10.8062  10.9455  11.0076  11.0871  11.1516  11.1857  11.2230
    11.2728  11.3077  11.3344  11.3882  11.4197  11.4542  11.5797  11.6384
    11.6547  11.7184  11.7364  11.8362  11.8591  11.8650  11.9543  12.0490
    12.0675  12.1081

          k =-0.5000 0.0000 0.0000 ( 31506 PWs)   bands (ev):

   -49.6321 -49.6066 -49.3077 -49.2847 -49.2713 -49.2344 -49.2092 -49.0597
   -48.9768 -48.9612 -48.9383 -48.9236 -48.9007 -48.8399 -48.8243 -48.8069
   -48.7162 -48.7041 -48.7012 -48.6743 -48.6117 -48.5813 -48.2197 -48.1307
   -25.9397 -25.9143 -25.8615 -25.8359 -25.7140 -25.6880 -25.6240 -25.6163
   -25.6002 -25.5404 -25.5354 -25.5176 -25.5129 -25.4984 -25.4981 -25.4820
   -25.4702 -25.4548 -25.4453 -25.4176 -25.4085 -25.3889 -25.3888 -25.3850
   -25.3810 -25.3728 -25.2978 -25.2866 -25.2727 -25.2444 -25.2416 -25.2253
   -25.1881 -25.1842 -25.1828 -25.1594 -25.1443 -25.1440 -25.1252 -25.0915
   -25.0775 -25.0627 -25.0602 -25.0495 -25.0362 -25.0299 -25.0147 -24.9980
   -24.9844 -24.9781 -24.9720 -24.9509 -24.9449 -24.9250 -24.9123 -24.8989
   -24.8887 -24.8714 -24.8502 -24.8475 -24.8230 -24.7993 -24.7915 -24.7639
   -24.7591 -24.7123 -24.6872 -24.6576 -24.4602 -24.4125 -24.3538 -24.2902
   -22.5762 -22.5693 -22.3965 -22.3896 -22.1906 -22.1509 -22.0312 -22.0004
   -21.9745 -21.9710 -21.8920 -21.8323 -21.8202 -21.7030 -21.6338 -12.1545
   -12.1267 -11.8607 -11.7666 -11.7401 -11.7117 -11.6354 -11.6134 -11.4568
   -11.4116 -11.3873 -11.3351 -11.3109 -11.2893 -11.2792 -11.2724 -11.2552
   -11.2164 -11.1839 -11.1228 -11.1047 -11.0827 -11.0804 -11.0559 -11.0280
   -11.0116 -10.9805 -10.9071 -10.9001 -10.8549 -10.8482 -10.8278 -10.8104
   -10.7524 -10.6921 -10.6840 -10.6781 -10.6618 -10.5944 -10.5882 -10.5635
   -10.5510 -10.5500 -10.5066 -10.4664 -10.4469 -10.4230 -10.3902 -10.3478
   -10.2955 -10.2472 -10.2161 -10.2150 -10.2010 -10.1256 -10.1220 -10.1047
   -10.0439 -10.0377 -10.0008  -9.9812  -9.9331  -9.8422  -9.7537  -9.5874
    -9.5305  -9.5004  -9.4625  -6.1330  -6.1273  -6.0938  -6.0889  -6.0062
    -6.0001  -5.9181  -5.9130  -5.8886  -5.8831  -5.8447  -5.8382  -5.7896
    -5.7480  -5.6932  -5.6538  -5.6535  -5.6252  -5.6114  -5.5691  -5.5313
    -5.5149  -5.5098  -5.5011  -5.4869  -5.4827  -5.4727  -5.4716  -5.4548
    -5.4056  -5.4030  -5.3973  -5.3763  -5.3709  -5.3398  -5.3357  -5.3284
    -5.2762  -5.2546  -5.2422  -5.1798  -5.1764  -5.1006  -5.0984  -5.0723
     0.1499   0.1775   0.4508   0.5020   0.5300   0.6231   0.6276   0.6519
     0.7448   0.7656   0.7922   0.8740   0.8987   0.9577   0.9639   0.9720
     0.9850   1.1334   1.1400   1.1425   1.1593   1.2582   1.2723   1.2873
     1.3004   1.3201   1.4026   1.4202   1.4438   1.4948   1.4992   1.5146
     1.5261   1.5742   1.5825   1.5995   1.6470   1.6698   1.6771   1.7528
     1.7665   1.7934   1.9114   1.9198   1.9263   1.9454   1.9577   1.9598
     1.9932   2.0041   2.0316   2.0518   2.0695   2.0971   2.1196   2.2049
     2.2500   2.2767   2.2794   2.3120   2.3286   2.3323   2.3722   2.4226
     2.4472   2.4654   2.4860   2.5162   2.5349   2.5485   2.5611   2.6303
     2.6483   2.6894   2.7108   2.7683   2.7744   2.7868   2.8105   2.8238
     2.8371   2.8410   2.8719   2.8837   2.8992   2.9388   2.9441   2.9587
     3.0486   3.0644   3.0736   3.0942   3.1340   3.1524   3.1703   3.2088
     3.2169   3.2267   3.2449   3.2646   3.2793   3.2859   3.3270   3.3477
     3.4085   3.4288   3.4629   3.4845   3.4934   3.5079   3.5442   3.6298
     3.6546   3.6623   3.6809   3.7007   3.7150   3.7354   3.7455   3.7558
     3.7707   3.8032   3.8596   3.8745   3.8918   3.9118   3.9221   3.9247
     3.9469   3.9536   3.9747   3.9810   3.9986   4.0390   4.0893   4.1114
     4.1234   4.1376   4.1849   4.1978   4.2048   4.2340   4.2464   4.2731
     4.2914   4.3734   4.3882   4.4173   4.4353   4.4544   4.4630   4.4721
     4.4814   4.4960   4.5309   4.5396   4.5585   4.5704   4.5888   4.5976
     4.6139   4.6614   4.6798   4.6875   4.7224   4.7281   4.7484   4.7613
     4.7938   4.8053   4.8160   4.8383   4.8409   4.8542   4.8705   4.8921
     4.9155   4.9261   4.9544   4.9723   4.9795   5.0090   5.0182   5.0395
     5.0526   5.0580   5.0754   5.1115   5.1357   5.1580   5.1807   5.1895
     5.2059   5.2194   5.2682   5.2864   5.3322   5.3930   5.4656   5.4989
     5.5396   5.5596   5.6344   5.6902   8.2322   8.2545   8.4692   8.4941
     8.6392   8.7493   8.7744   8.8151   8.8449   8.9408   8.9713   9.0183
     9.0436   9.0493   9.1060   9.1329   9.1505   9.2091   9.2817   9.3142
     9.3480   9.3800   9.3825   9.4436   9.4648   9.5233   9.5467   9.5509
     9.6151   9.6727   9.7131   9.7943   9.8045   9.8197   9.8435   9.9270
     9.9475   9.9543  10.0718  10.1240  10.1474  10.1703  10.1884  10.2395
    10.2674  10.3061  10.3578  10.3754  10.4125  10.4241  10.4451  10.4604
    10.4829  10.4960  10.5194  10.5423  10.5994  10.6322  10.6500  10.6624
    10.6770  10.7314  10.7549  10.8426  10.8746  10.8927  10.9476  11.0481
    11.1378  11.2260  11.2903  11.3681  11.3754  11.3995  11.4661  11.5035
    11.7211  11.7291  11.9078  11.9479  12.1357  12.2434  12.2759  12.3055
    12.3351  12.3969

          k =-0.5000 0.0000-0.6060 ( 31516 PWs)   bands (ev):

   -49.6320 -49.6066 -49.3076 -49.2847 -49.2713 -49.2344 -49.2091 -49.0597
   -48.9748 -48.9632 -48.9361 -48.9258 -48.9007 -48.8399 -48.8244 -48.8066
   -48.7164 -48.7042 -48.7008 -48.6743 -48.6120 -48.5813 -48.2198 -48.1308
   -25.9339 -25.9083 -25.8591 -25.8335 -25.7183 -25.6926 -25.6209 -25.6126
   -25.5978 -25.5404 -25.5336 -25.5175 -25.5129 -25.4972 -25.4935 -25.4770
   -25.4725 -25.4572 -25.4249 -25.4011 -25.3981 -25.3958 -25.3904 -25.3824
   -25.3762 -25.3753 -25.2871 -25.2849 -25.2699 -25.2416 -25.2407 -25.2381
   -25.2002 -25.1827 -25.1704 -25.1606 -25.1406 -25.1272 -25.1263 -25.1074
   -25.0813 -25.0793 -25.0506 -25.0436 -25.0389 -25.0288 -25.0250 -25.0053
   -24.9993 -24.9850 -24.9713 -24.9464 -24.9441 -24.9239 -24.9191 -24.8982
   -24.8920 -24.8801 -24.8588 -24.8524 -24.8219 -24.8016 -24.7920 -24.7635
   -24.7615 -24.7110 -24.6930 -24.6580 -24.4599 -24.4200 -24.3534 -24.2985
   -22.5757 -22.5687 -22.3970 -22.3900 -22.1899 -22.1503 -22.0318 -21.9950
   -21.9797 -21.9715 -21.8901 -21.8341 -21.8193 -21.7038 -21.6338 -12.0398
   -12.0122 -11.7443 -11.7210 -11.6941 -11.5939 -11.5405 -11.5189 -11.4473
   -11.4216 -11.4167 -11.3652 -11.3378 -11.3290 -11.3040 -11.2574 -11.2410
   -11.2150 -11.1746 -11.1460 -11.1269 -11.1071 -11.0779 -11.0647 -11.0351
   -11.0115 -10.9703 -10.9510 -10.9475 -10.9240 -10.9180 -10.8580 -10.7652
   -10.7487 -10.7222 -10.6892 -10.6615 -10.6395 -10.6337 -10.6180 -10.5984
   -10.5801 -10.5549 -10.5162 -10.4885 -10.4748 -10.4553 -10.4203 -10.3938
   -10.3453 -10.3200 -10.2209 -10.2077 -10.2002 -10.1652 -10.1289 -10.1107
   -10.0768 -10.0394  -9.9892  -9.9582  -9.9335  -9.8405  -9.7866  -9.5876
    -9.5199  -9.5143  -9.4625  -6.1414  -6.1321  -6.0747  -6.0661  -6.0119
    -6.0016  -5.9253  -5.9174  -5.8981  -5.8779  -5.8546  -5.8234  -5.7647
    -5.7247  -5.6908  -5.6596  -5.6515  -5.6167  -5.5763  -5.5739  -5.5405
    -5.5307  -5.5137  -5.4936  -5.4868  -5.4740  -5.4736  -5.4498  -5.4459
    -5.4281  -5.3932  -5.3931  -5.3824  -5.3657  -5.3524  -5.3373  -5.3321
    -5.2740  -5.2396  -5.2364  -5.1935  -5.1781  -5.1078  -5.0929  -5.0669
     0.2421   0.2707   0.4797   0.5070   0.5331   0.6987   0.7103   0.7323
     0.7443   0.7551   0.7695   0.7860   0.7885   0.9508   0.9631   0.9780
     0.9990   1.0255   1.0514   1.1177   1.1366   1.2057   1.2633   1.2690
     1.2892   1.2940   1.3080   1.3158   1.3238   1.3911   1.4951   1.5696
     1.5870   1.6003   1.6159   1.6248   1.6323   1.6426   1.7256   1.7539
     1.7625   1.7740   1.7951   1.8142   1.8934   1.9222   1.9399   1.9595
     2.0213   2.0241   2.0461   2.0781   2.0936   2.1116   2.1485   2.1679
     2.1769   2.1923   2.2142   2.2425   2.2926   2.3169   2.3430   2.3945
     2.4070   2.4435   2.4570   2.4741   2.5081   2.5267   2.5462   2.6002
     2.6299   2.6672   2.6998   2.7078   2.7444   2.7740   2.7955   2.8173
     2.8283   2.8393   2.9300   2.9439   2.9573   2.9696   2.9855   3.0081
     3.1023   3.1170   3.1399   3.1597   3.1749   3.2078   3.2306   3.2459
     3.3009   3.3050   3.3237   3.3335   3.3616   3.3838   3.3981   3.4280
     3.4847   3.5002   3.5499   3.5812   3.6051   3.6195   3.6267   3.6395
     3.6793   3.6863   3.7221   3.7380   3.7579   3.7962   3.8261   3.8498
     3.8759   3.8818   3.9077   3.9254   3.9339   3.9357   3.9883   3.9969
     4.0116   4.0285   4.0400   4.0530   4.0835   4.1035   4.1147   4.1671
     4.1927   4.2090   4.2196   4.2265   4.2492   4.2717   4.2777   4.2962
     4.3385   4.3537   4.3677   4.3771   4.3863   4.4224   4.4529   4.4653
     4.4765   4.4985   4.5110   4.5400   4.5425   4.5461   4.5520   4.5735
     4.5853   4.6067   4.6285   4.6640   4.6899   4.6996   4.7190   4.7434
     4.7551   4.7582   4.7821   4.7860   4.8245   4.8340   4.8406   4.8583
     4.8659   4.8946   4.9071   4.9129   4.9253   4.9478   4.9830   4.9937
     5.0085   5.0160   5.0379   5.1329   5.1401   5.1575   5.1776   5.1804
     5.2061   5.2098   5.2211   5.3052   5.3256   5.3493   5.3593   5.4873
     5.5182   5.5753   5.6153   5.6960   8.4662   8.4898   8.5588   8.5826
     8.7650   8.7944   8.8365   8.9199   8.9325   8.9444   9.0391   9.0668
     9.0732   9.0809   9.0913   9.1045   9.1750   9.2494   9.2699   9.2723
     9.2827   9.2991   9.3233   9.3506   9.4056   9.4354   9.5435   9.5484
     9.5707   9.5765   9.6609   9.6734   9.6976   9.6992   9.7218   9.7810
     9.7994   9.8621   9.8915   9.9578   9.9609  10.0269  10.0491  10.0565
    10.1051  10.1332  10.1924  10.2458  10.2552  10.2734  10.3168  10.3625
    10.3772  10.3837  10.4111  10.4674  10.5007  10.5224  10.5236  10.6237
    10.6331  10.6745  10.6839  10.8321  11.0404  11.0550  11.0803  11.0979
    11.1390  11.1944  11.3791  11.4753  11.4946  11.5199  11.7185  11.7725
    11.8160  11.8317  11.8936  11.9738  12.0389  12.0514  12.1727  12.2238
    12.2408  12.3150

     the Fermi energy is     6.3440 ev

!    total energy              =  -12556.39143979 Ry
     Harris-Foulkes estimate   =  -12556.39144617 Ry
     estimated scf accuracy    <       0.00000900 Ry

     total all-electron energy =   -211663.528230 Ry

     The total energy is the sum of the following terms:

     one-electron contribution =   -3479.91944473 Ry
     hartree contribution      =    2146.20156608 Ry
     xc contribution           =   -1368.19386147 Ry
     ewald contribution        =   -3371.62183535 Ry
     one-center paw contrib.   =   -6482.77998512 Ry
     smearing contrib. (-TS)   =      -0.07787920 Ry

     convergence has been achieved in  19 iterations

     negative rho (up, down):  8.924E-05 0.000E+00

     Forces acting on atoms (cartesian axes, Ry/au):

     atom    1 type  1   force =    -0.02426073   -0.09068035   -0.02042566
     atom    2 type  1   force =    -0.03400736    0.14569396    0.03453254
     atom    3 type  1   force =    -0.05365266    0.10477572   -0.01733377
     atom    4 type  1   force =    -0.03386358   -0.14873624    0.03381263
     atom    5 type  1   force =    -0.03643020   -0.14686084   -0.00270487
     atom    6 type  1   force =    -0.04240202    0.17246948    0.00540380
     atom    7 type  1   force =    -0.03654755    0.14356554   -0.00492799
     atom    8 type  1   force =    -0.01227165   -0.15126622    0.01193209
     atom    9 type  1   force =     0.00436051   -0.00293032    0.05943967
     atom   10 type  1   force =     0.00439915    0.02679592   -0.06333417
     atom   11 type  1   force =    -0.01399039   -0.02165434    0.04771846
     atom   12 type  1   force =     0.00447823   -0.02994477   -0.06319057
     atom   13 type  1   force =     0.01015015    0.01920908    0.00615389
     atom   14 type  1   force =     0.01033964   -0.00228620   -0.00705042
     atom   15 type  1   force =     0.01008415   -0.01943123    0.00622174
     atom   16 type  1   force =     0.03099456   -0.02862544   -0.02176797
     atom   17 type  1   force =    -0.12721052   -0.01659291   -0.04245017
     atom   18 type  1   force =    -0.13682752    0.03024388    0.04330172
     atom   19 type  1   force =    -0.12191652    0.01658086   -0.04167668
     atom   20 type  1   force =    -0.13645103   -0.03217982    0.04141168
     atom   21 type  1   force =     0.03085237   -0.07337658    0.01846293
     atom   22 type  1   force =     0.03108581    0.08756051   -0.01913373
     atom   23 type  1   force =     0.03155232    0.07047705    0.01512020
     atom   24 type  1   force =     0.03139803   -0.09143137   -0.01706515
     atom   25 type  2   force =     0.00187146    0.01539289    0.00110247
     atom   26 type  2   force =     0.00142635   -0.00062350    0.00036634
     atom   27 type  2   force =     0.00074559   -0.00036758   -0.00094599
     atom   28 type  2   force =     0.00140589   -0.00006015    0.00035534
     atom   29 type  2   force =     0.00044121    0.00991819    0.00071434
     atom   30 type  2   force =     0.00039753   -0.00677140   -0.00111698
     atom   31 type  2   force =     0.00034763    0.00595532   -0.00126330
     atom   32 type  2   force =     0.00598133    0.00124815   -0.00231721
     atom   33 type  2   force =     0.00661755    0.00347871    0.00229375
     atom   34 type  2   force =     0.00557449   -0.00336490   -0.00137692
     atom   35 type  2   force =     0.00656803   -0.00407302    0.00222260
     atom   36 type  2   force =     0.01271218   -0.00355543    0.00007770
     atom   37 type  2   force =     0.01321654    0.00753248   -0.00035918
     atom   38 type  2   force =     0.01264015    0.00196027   -0.00021171
     atom   39 type  2   force =     0.01323776   -0.00825288   -0.00007611
     atom   40 type  3   force =     0.00080166    0.10822996    0.04585874
     atom   41 type  3   force =     0.01446329   -0.14247965   -0.05118289
     atom   42 type  3   force =     0.02126712   -0.12920669    0.03757607
     atom   43 type  3   force =     0.01462987    0.14341463   -0.05098022
     atom   44 type  3   force =     0.01092472   -0.09581266    0.00774393
     atom   45 type  3   force =     0.00182467    0.07630910   -0.01014089
     atom   46 type  3   force =    -0.00833816    0.07216236   -0.00159563
     atom   47 type  3   force =     0.00178634   -0.07570560   -0.01015592
     atom   48 type  3   force =    -0.02079994    0.03687965   -0.02802738
     atom   49 type  3   force =    -0.02073055   -0.04371795    0.03480826
     atom   50 type  3   force =    -0.01361674   -0.02764992   -0.03058004
     atom   51 type  3   force =    -0.02073966    0.04363856    0.03533730
     atom   52 type  3   force =    -0.02076318   -0.01870924   -0.00071689
     atom   53 type  3   force =    -0.02139406    0.01278529    0.00742048
     atom   54 type  3   force =    -0.02863330    0.02824780   -0.00221254
     atom   55 type  3   force =    -0.02135212   -0.01296041    0.00795621
     atom   56 type  3   force =     0.00625673   -0.01776298    0.00064969
     atom   57 type  3   force =     0.00397596    0.00813900   -0.00168728
     atom   58 type  3   force =     0.00869049    0.02291003    0.00070019
     atom   59 type  3   force =     0.00362358   -0.00671110   -0.00242919
     atom   60 type  3   force =    -0.07295382    0.01570627   -0.03152249
     atom   61 type  3   force =    -0.07191842   -0.02484164    0.03040581
     atom   62 type  3   force =    -0.07519836   -0.01021436   -0.03150652
     atom   63 type  3   force =    -0.07143054    0.02627392    0.03055183
     atom   64 type  3   force =    -0.00937130    0.00600131   -0.04467881
     atom   65 type  3   force =    -0.00744947   -0.02001097    0.03506240
     atom   66 type  3   force =     0.00352390   -0.00031722   -0.02689954
     atom   67 type  3   force =    -0.00742282    0.02089421    0.03524493
     atom   68 type  3   force =     0.00064406   -0.12203790   -0.00342305
     atom   69 type  3   force =    -0.00249607    0.11640161   -0.00005927
     atom   70 type  3   force =    -0.01211666    0.12176838    0.01249825
     atom   71 type  3   force =    -0.00281045   -0.11580654   -0.00052651
     atom   72 type  3   force =    -0.02038729   -0.03892858   -0.02437300
     atom   73 type  3   force =    -0.02020981    0.03197525    0.02337247
     atom   74 type  3   force =    -0.02106245    0.03739244   -0.02178974
     atom   75 type  3   force =    -0.02068432   -0.03177735    0.02356270
     atom   76 type  3   force =     0.10208593    0.07083635    0.01382113
     atom   77 type  3   force =     0.10566530   -0.07992200   -0.01367052
     atom   78 type  3   force =     0.09886936   -0.06968936    0.01727279
     atom   79 type  3   force =     0.10601764    0.08007316   -0.01388052
     atom   80 type  3   force =     0.00323477   -0.00751569   -0.02421603
     atom   81 type  3   force =     0.00389272    0.00301404    0.02461453
     atom   82 type  3   force =     0.00133408    0.00962167   -0.02192175
     atom   83 type  3   force =     0.00381430   -0.00149600    0.02502748
     atom   84 type  3   force =    -0.00282773    0.02345468    0.00987425
     atom   85 type  3   force =    -0.00274669   -0.02670077   -0.01053653
     atom   86 type  3   force =    -0.00118785   -0.01567884    0.01254689
     atom   87 type  3   force =    -0.00266309    0.02811187   -0.01092137
     atom   88 type  3   force =     0.01674533    0.04355815   -0.00212291
     atom   89 type  3   force =     0.01845960   -0.04912591    0.00105541
     atom   90 type  3   force =     0.01608521   -0.04310563   -0.00036473
     atom   91 type  3   force =     0.01868609    0.05051113    0.00107045
     atom   92 type  3   force =     0.00018066   -0.00646677   -0.00257384
     atom   93 type  3   force =     0.00151646    0.00192208    0.00372444
     atom   94 type  3   force =    -0.00499373    0.01100244   -0.01115708
     atom   95 type  3   force =     0.00141632   -0.00159397    0.00360793
     atom   96 type  3   force =     0.13698843   -0.01328320   -0.00991461
     atom   97 type  3   force =     0.13792490   -0.00076554    0.00865971
     atom   98 type  3   force =     0.13540621    0.01085550   -0.00986389
     atom   99 type  3   force =     0.13775524    0.00188835    0.00834457
     atom  100 type  3   force =    -0.00900336    0.05421684   -0.00314202
     atom  101 type  3   force =    -0.00912964   -0.06429222    0.00158453
     atom  102 type  3   force =    -0.00843538   -0.05150796   -0.00324820
     atom  103 type  3   force =    -0.00885664    0.06609452    0.00104916
     atom  104 type  3   force =     0.00773629   -0.04301038    0.08229902
     atom  105 type  3   force =     0.00792254    0.03900027   -0.07794151
     atom  106 type  3   force =     0.00687983    0.04477689    0.08227883
     atom  107 type  3   force =     0.00764715   -0.03905519   -0.07753244

     Total force =     0.852578     Total SCF correction =     0.011544

     BFGS Geometry Optimization

     number of scf cycles    =   1
     number of bfgs steps    =   0

     energy   new            =  -12556.3914397897 Ry

     new trust radius        =       0.1776875130 bohr
     new conv_thr            =       0.0000100000 Ry


ATOMIC_POSITIONS (angstrom)
Nb            1.9934247724       14.2441930261        3.0164432060
Nb            5.9032670784        2.8035559212        0.4394198332
Nb            5.8928712349       19.3869079214        6.2480793624
Nb            1.9883431630       30.8184661723        3.6690388732
Nb            2.0486069695        2.6504035888        0.3932356439
Nb            5.9604468190       14.3817859159        3.0565915697
Nb            5.9635448705       30.9714856110        3.6220592206
Nb            2.0613911213       19.2530773659        6.2900461901
Nb            1.9998714820       12.6663283436        0.1781861197
Nb            5.9148919298        4.3649387905        3.2681520021
Nb            5.9051606019       20.9443050164        3.4019835230
Nb            1.9999337785       29.2570279083        0.0382279930
Nb            2.1268142298        4.2958320078        3.2294764986
Nb            6.0419145044       12.7317601937        0.2184470793
Nb            6.0417793011       29.3276824336        6.4595124020
Nb            2.1378446126       20.8755240701        3.4406588861
Nb            3.9881430916       11.6691084119        2.5864973367
Nb            0.0680539950        5.3567533711        0.8623522858
Nb            0.0759445564       21.9545282124        5.8169066507
Nb            3.9832532257       28.2658551732        4.0913521147
Nb            4.0694373692       10.1280047883        6.1284491609
Nb            0.1545609000        6.8981380259        3.7795948684
Nb            0.1548077662       23.4941028485        2.8966802643
Nb            4.0697261197       26.7234456054        0.5506895117
K             3.9523663364       15.8542205643        5.9309724015
K             0.0371307894        1.1722330578        3.9782028593
K             0.0367705467       17.7773734862        2.6998884017
K             3.9521199661       32.4510381684        0.7481970397
K             0.0562634796       15.7453834789        5.8933190134
K             3.9712403622        1.2749197287        4.0148669200
K             0.0562139557       32.3482814192        0.7847894881
K             0.0513491824       11.2308784946        3.8800707839
K             3.9666858584        5.7902598557        6.0283158021
K             3.9661338904       22.3916433698        0.6505683667
K             0.0516596514       27.8330576518        2.7982781514
K             0.0886429945        9.2191325452        0.3987581189
K             4.0039098894        7.8016100154        3.0494909308
K             4.0036048819       24.4036663285        3.6286049692
K             0.0889211221       25.8216417635        6.2796407266
O             2.3448572191       15.9365578293        3.5463604017
O             6.2670866441        1.0639560171        6.3592211808
O             6.2706870755       17.6759847659        0.3119774024
O             2.3521747917       32.5601717560        3.1293284285
O             5.8195621118       16.0276771219        3.5286219103
O             1.8997465753        0.9806400342        6.3785086744
O             1.8943686380       17.5834506755        0.2936796304
O             5.8147262902       32.6433123216        3.1485007163
O             2.0980961483       13.3300078687        4.9241865483
O             6.0131328650        3.6850114588        4.9877997378
O             6.0168973302       20.2985192905        1.6928357373
O             2.0981280443       29.9385795313        1.7580796933
O             6.0585765957       13.6034664958        5.0588526402
O             2.1432427506        3.4120356852        4.8530927503
O             2.1394119127       20.0252230913        1.8280611750
O             6.0582649469       30.2115036451        1.6233762430
O             2.1883489211       10.7611922352        6.0601658005
O             6.1021419881        6.2523529733        3.8476841290
O             6.1046368076       22.8651744655        2.8301925259
O             2.1869555155       27.3720356362        0.6172915270
O             5.9944155033       10.7864424026        6.2946930167
O             2.0799634117        6.2273613715        3.6131140619
O             2.0782277428       22.8401067954        3.0647014660
O             5.9952215861       27.3970295612        0.3831913341
O             2.0431239200       14.4364977582        1.0859259914
O             5.9591409078        2.5747266484        2.3573842217
O             5.9649477694       19.1901531346        4.3253343752
O             2.0441550115       31.0493737403        5.5874808124
O             5.9934988222       14.7617823256        1.1778775993
O             2.0768371389        2.2538730793        2.2686776345
O             2.0717461414       18.8617180515        4.4163027916
O             5.9916707748       31.3700748160        5.4984303851
O             2.1437355109       12.1411588846        2.3046723662
O             6.0588294274        4.8737995725        1.1431971776
O             6.0583782304       21.4816712253        5.5360393641
O             2.1435783279       28.7499381509        4.3732978443
O             5.8858115479       11.9546519807        2.2030088271
O             1.9727056664        5.0591781002        1.2454688748
O             1.9691094138       21.6695979766        5.4348353692
O             5.8878921198       28.5645348904        4.4753577426
O             4.0434457673       12.5227588705        0.4920014309
O             0.1287939379        4.4934959604        2.9566074473
O             0.1274399638       21.1019975686        3.7232155120
O             4.0437524381       29.1309393493        6.1868259701
O             0.1003156309       12.4043156805        0.3176752276
O             4.0153585167        4.6126045635        3.1303723086
O             4.0161834186       21.2234421167        3.5490895265
O             0.1004027527       29.0117751625        6.3601686591
O             3.8588392453        9.9474849799        1.6136756066
O             7.7747464002        7.0682066886        1.8341574977
O             7.7734899248       23.6763974856        4.8446059917
O             3.8598662519       26.5561593392        5.0641654597
O             0.0489395987       14.0748849315        3.2264409812
O             3.9646464765        2.9413481195        0.2225668900
O             3.9612014310       19.5511582400        6.4518989297
O             0.0495934856       30.6824585071        3.4525052338
O             3.9548221571       13.6890308331        3.1598294135
O             7.8703177156        3.3221728913        0.2879045207
O             7.8689848787       19.9333274831        6.3898562528
O             3.9552279354       30.3020542699        3.5177377546
O             4.1614986255        8.4084853162        5.7617423167
O             0.2464318024        8.6048210219        4.1458324965
O             0.2467991875       25.2165811630        2.5316861284
O             4.1615762692       25.0197757110        0.9155491900
O             4.1894458664       10.9364648882        4.2706127663
O             0.2745444293        6.0800510524        5.6400921303
O             0.2739926511       22.6881129072        1.0406020803
O             4.1893986966       27.5435528836        2.4103085995



     Writing output data file ./outdir/knbo.save/
     NEW-OLD atomic charge density approx. for the potential

     Check: negative core charge=   -0.000189

     negative rho (up, down):  7.426E-05 0.000E+00

     total cpu time spent up to now is     5620.3 secs

     Self-consistent Calculation

     iteration #  1     ecut=    30.00 Ry     beta= 0.40
     Davidson diagonalization with overlap
     c_bands:  1 eigenvalues not converged
     c_bands:  1 eigenvalues not converged
     c_bands:  1 eigenvalues not converged
     ethr =  1.00E-06,  avg # of iterations = 18.8

     negative rho (up, down):  8.556E-05 0.000E+00

     total cpu time spent up to now is     6653.6 secs

     total energy              =  -12556.62906929 Ry
     Harris-Foulkes estimate   =  -12557.09790652 Ry
     estimated scf accuracy    <       0.35654756 Ry

     iteration #  2     ecut=    30.00 Ry     beta= 0.40
     Davidson diagonalization with overlap
     ethr =  4.17E-05,  avg # of iterations =  7.2

     negative rho (up, down):  8.708E-05 0.000E+00

     total cpu time spent up to now is     7034.0 secs

     total energy              =  -12556.58673709 Ry
     Harris-Foulkes estimate   =  -12556.83055333 Ry
     estimated scf accuracy    <       1.00351106 Ry

     iteration #  3     ecut=    30.00 Ry     beta= 0.40
     Davidson diagonalization with overlap
     ethr =  4.17E-05,  avg # of iterations = 10.2

     negative rho (up, down):  8.917E-05 0.000E+00

     total cpu time spent up to now is     7429.3 secs

     total energy              =  -12556.69606517 Ry
     Harris-Foulkes estimate   =  -12556.78772384 Ry
     estimated scf accuracy    <       0.47084823 Ry

     iteration #  4     ecut=    30.00 Ry     beta= 0.40
     Davidson diagonalization with overlap
     ethr =  4.17E-05,  avg # of iterations = 11.8

     negative rho (up, down):  9.143E-05 0.000E+00

     total cpu time spent up to now is     7782.8 secs

     total energy              =  -12556.72586990 Ry
     Harris-Foulkes estimate   =  -12556.74564515 Ry
     estimated scf accuracy    <       0.06382352 Ry

     iteration #  5     ecut=    30.00 Ry     beta= 0.40
     Davidson diagonalization with overlap
     ethr =  7.46E-06,  avg # of iterations = 14.5

     negative rho (up, down):  9.401E-05 0.000E+00

     total cpu time spent up to now is     8246.5 secs

     total energy              =  -12556.72777138 Ry
     Harris-Foulkes estimate   =  -12556.74338207 Ry
     estimated scf accuracy    <       0.07607442 Ry

     iteration #  6     ecut=    30.00 Ry     beta= 0.40
     Davidson diagonalization with overlap
     c_bands:  1 eigenvalues not converged
     ethr =  7.46E-06,  avg # of iterations = 18.0

     negative rho (up, down):  9.629E-05 0.000E+00

     total cpu time spent up to now is     8730.1 secs

     total energy              =  -12556.73002077 Ry
     Harris-Foulkes estimate   =  -12556.73861793 Ry
     estimated scf accuracy    <       0.04293560 Ry

     iteration #  7     ecut=    30.00 Ry     beta= 0.40
     Davidson diagonalization with overlap
     ethr =  5.02E-06,  avg # of iterations = 17.8

     negative rho (up, down):  9.800E-05 0.000E+00

     total cpu time spent up to now is     9198.8 secs

     total energy              =  -12556.73371602 Ry
     Harris-Foulkes estimate   =  -12556.73504325 Ry
     estimated scf accuracy    <       0.00670172 Ry

     iteration #  8     ecut=    30.00 Ry     beta= 0.40
     Davidson diagonalization with overlap
     ethr =  7.84E-07,  avg # of iterations =  6.8

     negative rho (up, down):  9.901E-05 0.000E+00

     total cpu time spent up to now is     9427.3 secs

     total energy              =  -12556.73409354 Ry
     Harris-Foulkes estimate   =  -12556.73430485 Ry
     estimated scf accuracy    <       0.00075578 Ry

     iteration #  9     ecut=    30.00 Ry     beta= 0.40
     Davidson diagonalization with overlap
     ethr =  8.84E-08,  avg # of iterations =  2.0

     negative rho (up, down):  9.970E-05 0.000E+00

     total cpu time spent up to now is     9571.6 secs

     total energy              =  -12556.73413010 Ry
     Harris-Foulkes estimate   =  -12556.73420783 Ry
     estimated scf accuracy    <       0.00026561 Ry

     iteration # 10     ecut=    30.00 Ry     beta= 0.40
     Davidson diagonalization with overlap
     ethr =  3.11E-08,  avg # of iterations =  2.0

     negative rho (up, down):  9.993E-05 0.000E+00

     total cpu time spent up to now is     9711.7 secs

     total energy              =  -12556.73415950 Ry
     Harris-Foulkes estimate   =  -12556.73417619 Ry
     estimated scf accuracy    <       0.00005902 Ry

     iteration # 11     ecut=    30.00 Ry     beta= 0.40
     Davidson diagonalization with overlap
     ethr =  6.90E-09,  avg # of iterations =  2.2

     negative rho (up, down):  1.001E-04 0.000E+00

     total cpu time spent up to now is     9859.5 secs

     total energy              =  -12556.73416674 Ry
     Harris-Foulkes estimate   =  -12556.73417139 Ry
     estimated scf accuracy    <       0.00001988 Ry

     iteration # 12     ecut=    30.00 Ry     beta= 0.40
     Davidson diagonalization with overlap
     ethr =  2.33E-09,  avg # of iterations =  3.0

     negative rho (up, down):  1.003E-04 0.000E+00

     total cpu time spent up to now is    10019.6 secs

     End of self-consistent calculation

          k = 0.0000 0.0000 0.0000 ( 31457 PWs)   bands (ev):

   -49.3882 -49.3606 -49.3424 -49.3136 -49.1908 -49.1624 -49.1129 -49.0345
   -48.9701 -48.9494 -48.9347 -48.9219 -48.8959 -48.8898 -48.8870 -48.8720
   -48.8616 -48.7763 -48.6893 -48.5562 -48.5073 -48.4829 -48.3886 -48.3234
   -25.7651 -25.7365 -25.6708 -25.6420 -25.6324 -25.6056 -25.5672 -25.5392
   -25.5312 -25.5163 -25.5028 -25.4880 -25.4783 -25.4719 -25.4442 -25.4430
   -25.4155 -25.4012 -25.3766 -25.3739 -25.3686 -25.3588 -25.3419 -25.3340
   -25.3081 -25.2971 -25.2682 -25.2356 -25.2251 -25.2181 -25.2123 -25.1878
   -25.1809 -25.1663 -25.1380 -25.1338 -25.1212 -25.1143 -25.1079 -25.0967
   -25.0860 -25.0766 -25.0735 -25.0687 -25.0447 -25.0388 -25.0367 -25.0366
   -25.0161 -25.0128 -24.9999 -24.9998 -24.9862 -24.9741 -24.9559 -24.9487
   -24.9320 -24.8528 -24.8216 -24.7884 -24.7552 -24.7340 -24.7205 -24.7096
   -24.6832 -24.6660 -24.6489 -24.6249 -24.5550 -24.5163 -24.4779 -24.4589
   -22.3566 -22.3461 -22.2563 -22.2198 -22.2192 -22.1922 -22.1667 -22.1576
   -22.1494 -22.1248 -22.0233 -21.9242 -21.7901 -21.7504 -21.6695 -12.2769
   -12.2460 -11.9956 -11.8435 -11.8164 -11.8108 -11.5500 -11.5257 -11.5148
   -11.3835 -11.3640 -11.3624 -11.3558 -11.3350 -11.2840 -11.2565 -11.2142
   -11.1021 -11.0908 -11.0619 -10.9915 -10.9798 -10.9723 -10.9493 -10.9216
   -10.9094 -10.8936 -10.8254 -10.8113 -10.7988 -10.7659 -10.7400 -10.7119
   -10.6510 -10.6435 -10.6249 -10.5747 -10.5666 -10.5574 -10.5557 -10.5510
   -10.5383 -10.4895 -10.4822 -10.4190 -10.4016 -10.3685 -10.3572 -10.3475
   -10.3415 -10.3219 -10.2861 -10.2691 -10.2504 -10.2440 -10.1980 -10.1428
   -10.1398 -10.1209 -10.0140  -9.9979  -9.8203  -9.8199  -9.7891  -9.7651
    -9.7406  -9.4665  -9.4111  -5.9175  -5.8941  -5.8765  -5.8729  -5.8660
    -5.8349  -5.8192  -5.8042  -5.7821  -5.7709  -5.7467  -5.7221  -5.7190
    -5.7134  -5.7115  -5.7045  -5.6919  -5.6859  -5.6854  -5.6702  -5.6690
    -5.6648  -5.6538  -5.6240  -5.6179  -5.6154  -5.6002  -5.5949  -5.5677
    -5.5667  -5.5599  -5.5154  -5.4671  -5.4611  -5.4156  -5.3966  -5.3652
    -5.3185  -5.2814  -5.2745  -5.2160  -5.1957  -5.1476  -5.1254  -5.0925
     0.0334   0.0626   0.3329   0.4449   0.4723   0.5599   0.6036   0.6269
     0.7399   0.7773   0.8047   0.8801   0.9371   0.9492   0.9531   0.9675
     0.9764   1.0724   1.0827   1.1376   1.1662   1.2470   1.2505   1.3060
     1.3216   1.3378   1.4056   1.4275   1.4469   1.5168   1.5546   1.5728
     1.5792   1.5887   1.6183   1.7130   1.7200   1.7495   1.7847   1.8243
     1.8362   1.9097   1.9353   1.9630   1.9720   1.9929   2.0270   2.0368
     2.0505   2.0925   2.1105   2.1263   2.1807   2.2272   2.2353   2.2411
     2.2542   2.2633   2.2856   2.3054   2.3588   2.3801   2.3956   2.4148
     2.4767   2.5211   2.5323   2.5523   2.5599   2.5990   2.6162   2.6394
     2.6773   2.7277   2.7698   2.7735   2.7882   2.8195   2.8350   2.8514
     2.8647   2.8919   2.9086   2.9303   2.9720   2.9918   3.0055   3.0504
     3.0946   3.1053   3.1290   3.1351   3.1572   3.1934   3.2084   3.2249
     3.2348   3.2536   3.2960   3.3232   3.3248   3.3617   3.3870   3.3994
     3.4158   3.4825   3.4981   3.5350   3.5723   3.5882   3.6264   3.6417
     3.6606   3.6764   3.6964   3.7190   3.7436   3.7847   3.8023   3.8288
     3.8671   3.8875   3.8961   3.9124   3.9343   3.9387   3.9900   4.0088
     4.0289   4.0574   4.0702   4.0996   4.1152   4.1165   4.1458   4.1592
     4.1759   4.1943   4.2062   4.2200   4.2415   4.2481   4.2813   4.2975
     4.3069   4.3346   4.3875   4.3929   4.4096   4.4237   4.4304   4.4533
     4.4709   4.4771   4.4960   4.5018   4.5202   4.5310   4.5372   4.5574
     4.5713   4.5886   4.6116   4.6430   4.6528   4.6923   4.7006   4.7057
     4.7389   4.7710   4.7918   4.8046   4.8252   4.8402   4.8507   4.8596
     4.8677   4.8763   4.8929   4.9108   4.9262   4.9779   4.9905   5.0125
     5.0269   5.0270   5.0478   5.0569   5.0742   5.1062   5.1588   5.1722
     5.1789   5.1972   5.2018   5.2225   5.2492   5.3301   5.3676   5.3695
     5.4553   5.4769   5.5015   5.6232   8.1006   8.1305   8.4032   8.5718
     8.6867   8.7269   8.9309   8.9539   9.0211   9.0261   9.0437   9.1519
     9.1800   9.1905   9.2663   9.3364   9.3709   9.3969   9.4121   9.4266
     9.4530   9.4784   9.5412   9.6287   9.7123   9.7286   9.7553   9.7986
     9.8600  10.0022  10.0215  10.0358  10.0662  10.0694  10.0860  10.0980
    10.1004  10.1965  10.2174  10.2395  10.2917  10.3492  10.3575  10.4003
    10.4056  10.4317  10.4581  10.4863  10.4954  10.5116  10.5312  10.5687
    10.5986  10.6333  10.6667  10.6727  10.6814  10.7239  10.7356  10.7449
    10.7743  10.7940  10.8027  10.8356  10.8936  10.9216  10.9851  11.0099
    11.0288  11.0557  11.0636  11.1496  11.1915  11.2062  11.2897  11.5562
    11.5925  11.7087  11.8383  11.9180  11.9599  11.9882  12.0522  12.1800
    12.3165  12.3946

          k = 0.0000 0.0000-0.6060 ( 31394 PWs)   bands (ev):

   -49.3881 -49.3605 -49.3423 -49.3134 -49.1907 -49.1623 -49.1128 -49.0344
   -48.9701 -48.9494 -48.9346 -48.9219 -48.8957 -48.8898 -48.8870 -48.8720
   -48.8614 -48.7761 -48.6894 -48.5562 -48.5073 -48.4829 -48.3886 -48.3234
   -25.7657 -25.7371 -25.6632 -25.6345 -25.6263 -25.5993 -25.5707 -25.5428
   -25.5290 -25.5225 -25.5006 -25.4944 -25.4789 -25.4514 -25.4436 -25.4245
   -25.4155 -25.3955 -25.3721 -25.3705 -25.3636 -25.3502 -25.3366 -25.3359
   -25.3101 -25.2969 -25.2694 -25.2332 -25.2226 -25.2220 -25.2029 -25.1945
   -25.1724 -25.1553 -25.1538 -25.1410 -25.1303 -25.1247 -25.1084 -25.0989
   -25.0812 -25.0810 -25.0743 -25.0666 -25.0511 -25.0429 -25.0416 -25.0221
   -25.0127 -25.0117 -25.0039 -25.0008 -24.9869 -24.9735 -24.9565 -24.9493
   -24.9318 -24.8716 -24.8203 -24.7904 -24.7541 -24.7538 -24.7214 -24.7089
   -24.6891 -24.6739 -24.6463 -24.6301 -24.5590 -24.5166 -24.4819 -24.4602
   -22.3559 -22.3457 -22.2531 -22.2223 -22.2192 -22.1868 -22.1719 -22.1580
   -22.1498 -22.1241 -22.0238 -21.9247 -21.7873 -21.7530 -21.6695 -12.2014
   -12.1694 -11.9234 -11.7549 -11.7299 -11.7236 -11.6191 -11.5948 -11.4086
   -11.3878 -11.3608 -11.3114 -11.2839 -11.2804 -11.2776 -11.1744 -11.1515
   -11.1458 -11.1189 -11.0522 -11.0208 -11.0137 -11.0039 -10.9969 -10.9734
   -10.8969 -10.8635 -10.8384 -10.8355 -10.7949 -10.7706 -10.7675 -10.7364
   -10.7314 -10.6868 -10.6628 -10.6272 -10.5813 -10.5768 -10.5721 -10.5711
   -10.5518 -10.5438 -10.5294 -10.4255 -10.3951 -10.3765 -10.3708 -10.3558
   -10.3523 -10.3205 -10.3181 -10.3001 -10.2923 -10.2452 -10.2375 -10.1412
   -10.1370 -10.1228 -10.0409 -10.0116  -9.8284  -9.8145  -9.7930  -9.7632
    -9.7562  -9.4646  -9.4114  -5.9175  -5.9111  -5.8556  -5.8467  -5.8228
    -5.8085  -5.8006  -5.7987  -5.7733  -5.7716  -5.7509  -5.7317  -5.7285
    -5.7173  -5.7145  -5.6988  -5.6953  -5.6886  -5.6857  -5.6808  -5.6701
    -5.6686  -5.6378  -5.6298  -5.6197  -5.6105  -5.6011  -5.5873  -5.5790
    -5.5766  -5.5531  -5.5130  -5.4762  -5.4568  -5.4126  -5.3888  -5.3605
    -5.3169  -5.2885  -5.2534  -5.2242  -5.2026  -5.1460  -5.1244  -5.0948
     0.0402   0.0693   0.3396   0.5224   0.5484   0.5664   0.6284   0.6512
     0.7864   0.8156   0.8170   0.8311   0.8563   0.9532   0.9794   0.9926
     1.0185   1.0895   1.1044   1.1555   1.1948   1.2217   1.2698   1.2927
     1.3027   1.3077   1.3259   1.3623   1.3908   1.4270   1.4378   1.4565
     1.4987   1.5853   1.6215   1.6461   1.6536   1.6772   1.6864   1.7065
     1.7336   1.7515   1.8148   1.8768   1.8889   1.9011   1.9098   1.9183
     1.9430   1.9704   2.0380   2.1055   2.1857   2.2013   2.2221   2.2376
     2.2523   2.2686   2.3058   2.3199   2.3465   2.3837   2.4226   2.4506
     2.5048   2.5273   2.5486   2.5900   2.6203   2.6498   2.7078   2.7129
     2.7350   2.7436   2.7661   2.7766   2.7887   2.8541   2.8676   2.8834
     2.9069   2.9828   3.0073   3.0567   3.0843   3.0930   3.1417   3.1714
     3.1856   3.2007   3.2416   3.2909   3.3080   3.3250   3.3356   3.3435
     3.3551   3.3641   3.4203   3.5050   3.5074   3.5185   3.5566   3.5668
     3.5815   3.6104   3.6259   3.6450   3.6852   3.6877   3.7041   3.7244
     3.7366   3.7583   3.7611   3.7762   3.7955   3.8054   3.8377   3.8752
     3.8824   3.8990   3.9266   3.9546   3.9674   4.0039   4.0156   4.0258
     4.0405   4.0447   4.0594   4.0755   4.1044   4.1123   4.1284   4.1323
     4.1782   4.1921   4.1982   4.2218   4.2366   4.2417   4.2550   4.2596
     4.2750   4.2926   4.3099   4.3242   4.3462   4.3609   4.3908   4.4059
     4.4397   4.4492   4.4712   4.4784   4.4992   4.5121   4.5351   4.5364
     4.5563   4.5651   4.5842   4.6046   4.6082   4.6247   4.6415   4.6617
     4.6797   4.7105   4.7467   4.7644   4.7697   4.7890   4.8037   4.8204
     4.8337   4.8393   4.8784   4.9203   4.9224   4.9373   4.9534   4.9965
     5.0117   5.0294   5.0393   5.0642   5.0704   5.0922   5.0945   5.1555
     5.1801   5.1839   5.1999   5.2206   5.2678   5.3155   5.3352   5.3950
     5.4317   5.4460   5.4873   5.5977   8.2591   8.2874   8.5651   8.6037
     8.6243   8.7709   8.8205   8.8455   8.9789   9.0504   9.0818   9.1438
     9.1595   9.2098   9.2349   9.2397   9.2680   9.2954   9.3170   9.4485
     9.5124   9.5283   9.5473   9.5741   9.6417   9.6623   9.6704   9.7087
     9.7396   9.7623   9.8384   9.9177   9.9404   9.9558   9.9936  10.0955
    10.0995  10.1142  10.1471  10.1601  10.1886  10.2327  10.2444  10.2697
    10.2749  10.3096  10.3232  10.4556  10.4816  10.4989  10.5197  10.5271
    10.5889  10.6162  10.6368  10.6756  10.6865  10.7156  10.7632  10.7786
    10.7871  10.8213  10.9296  10.9416  10.9555  10.9686  11.0364  11.0944
    11.1686  11.1798  11.2387  11.2441  11.2892  11.2963  11.3453  11.4031
    11.6790  11.7068  11.7558  11.8355  11.9932  12.0986  12.1165  12.1392
    12.2427  12.2628

          k =-0.5000 0.0000 0.0000 ( 31506 PWs)   bands (ev):

   -49.3881 -49.3606 -49.3426 -49.3137 -49.1909 -49.1624 -49.1129 -49.0346
   -48.9701 -48.9494 -48.9347 -48.9219 -48.8959 -48.8898 -48.8870 -48.8721
   -48.8617 -48.7763 -48.6893 -48.5562 -48.5073 -48.4829 -48.3887 -48.3235
   -25.7111 -25.6832 -25.6826 -25.6544 -25.6378 -25.6103 -25.5965 -25.5688
   -25.5423 -25.5227 -25.5140 -25.4947 -25.4653 -25.4404 -25.4376 -25.4329
   -25.4127 -25.4011 -25.3804 -25.3763 -25.3693 -25.3608 -25.3426 -25.3249
   -25.3021 -25.2985 -25.2581 -25.2411 -25.2288 -25.2269 -25.2026 -25.1730
   -25.1725 -25.1519 -25.1462 -25.1366 -25.1328 -25.1213 -25.1130 -25.0967
   -25.0878 -25.0846 -25.0779 -25.0699 -25.0547 -25.0453 -25.0418 -25.0298
   -25.0212 -25.0206 -25.0069 -24.9998 -24.9975 -24.9756 -24.9591 -24.9475
   -24.9263 -24.8504 -24.8183 -24.7887 -24.7512 -24.7258 -24.7094 -24.7069
   -24.6815 -24.6672 -24.6470 -24.6250 -24.5588 -24.5360 -24.4890 -24.4674
   -22.3561 -22.3460 -22.2562 -22.2197 -22.2192 -22.1921 -22.1666 -22.1579
   -22.1498 -22.1246 -22.0232 -21.9241 -21.7897 -21.7504 -21.6701 -12.0791
   -12.0493 -11.7871 -11.7024 -11.6716 -11.6295 -11.4850 -11.4583 -11.4170
   -11.3877 -11.3864 -11.3176 -11.2894 -11.2814 -11.2555 -11.2187 -11.2016
   -11.1645 -11.1397 -11.1359 -11.0337 -11.0231 -11.0037 -10.9863 -10.9779
   -10.9544 -10.8944 -10.8695 -10.8681 -10.8499 -10.8121 -10.8088 -10.7856
   -10.7406 -10.7333 -10.7057 -10.6629 -10.6497 -10.6260 -10.5730 -10.5586
   -10.5320 -10.5294 -10.5192 -10.4624 -10.4528 -10.3952 -10.3929 -10.3746
   -10.3617 -10.3405 -10.3399 -10.3201 -10.2811 -10.2720 -10.2478 -10.1977
   -10.1500 -10.1184 -10.0212 -10.0006  -9.8211  -9.8159  -9.7946  -9.7631
    -9.7423  -9.4652  -9.4132  -5.9049  -5.8970  -5.8784  -5.8751  -5.8700
    -5.8177  -5.8038  -5.7900  -5.7811  -5.7684  -5.7446  -5.7217  -5.7187
    -5.7132  -5.7109  -5.7024  -5.6901  -5.6857  -5.6817  -5.6768  -5.6685
    -5.6641  -5.6457  -5.6378  -5.6168  -5.6166  -5.6069  -5.5997  -5.5932
    -5.5661  -5.5585  -5.5161  -5.4663  -5.4591  -5.4164  -5.3958  -5.3631
    -5.3188  -5.2698  -5.2474  -5.2107  -5.2056  -5.1546  -5.1401  -5.1077
     0.3254   0.3535   0.6134   0.6161   0.6479   0.7088   0.7356   0.7639
     0.8512   0.8855   0.8928   0.9337   0.9571   1.0226   1.0628   1.1118
     1.1371   1.1415   1.1574   1.1617   1.1847   1.2754   1.2979   1.3033
     1.3241   1.3706   1.4149   1.4790   1.5130   1.5286   1.5331   1.5551
     1.5612   1.5995   1.6200   1.6531   1.6773   1.7316   1.7640   1.7897
     1.7984   1.8141   1.9023   1.9268   1.9498   1.9551   1.9801   1.9810
     2.0010   2.0609   2.0746   2.0944   2.1366   2.1659   2.1914   2.1962
     2.2214   2.2564   2.3337   2.3760   2.3814   2.3940   2.4281   2.4653
     2.4777   2.4858   2.5038   2.5243   2.5373   2.5927   2.6159   2.6792
     2.6887   2.7040   2.7280   2.7802   2.8059   2.8111   2.8320   2.8440
     2.8728   2.8950   2.9009   2.9617   2.9759   2.9821   2.9957   3.0126
     3.0195   3.0253   3.1030   3.1134   3.1330   3.1373   3.1621   3.2008
     3.2423   3.2552   3.2570   3.2685   3.2775   3.2878   3.3129   3.3702
     3.4001   3.4155   3.4227   3.4394   3.4495   3.4679   3.4917   3.5346
     3.5603   3.5748   3.5991   3.6909   3.7289   3.7608   3.8099   3.8246
     3.8277   3.8423   3.8541   3.8733   3.8789   3.8856   3.8979   3.9216
     3.9337   3.9810   4.0249   4.0490   4.0905   4.1507   4.1564   4.1724
     4.1905   4.2116   4.2216   4.2320   4.2546   4.2795   4.2941   4.3115
     4.3391   4.3534   4.3719   4.3811   4.3970   4.4251   4.4568   4.4779
     4.4834   4.5364   4.5568   4.5673   4.5787   4.5885   4.6108   4.6215
     4.6396   4.6445   4.6765   4.6804   4.6886   4.7164   4.7526   4.7578
     4.7820   4.7890   4.8000   4.8074   4.8345   4.8424   4.8503   4.8660
     4.8789   4.8857   4.9172   4.9255   4.9480   4.9610   4.9740   4.9839
     5.0544   5.0555   5.0637   5.0739   5.1003   5.1040   5.1097   5.1246
     5.1539   5.1658   5.1791   5.2594   5.2646   5.3025   5.3246   5.3565
     5.4020   5.4433   5.4928   5.5506   8.6039   8.6326   8.7110   8.7342
     8.8643   8.8930   8.9052   8.9256   8.9498   9.0457   9.0652   9.1182
     9.1495   9.1686   9.2109   9.2503   9.2682   9.2929   9.3088   9.3584
     9.3853   9.3965   9.4044   9.4275   9.4530   9.5700   9.5772   9.5896
     9.6086   9.7108   9.7194   9.7799   9.7975   9.8214   9.9017   9.9456
    10.0701  10.0925  10.1014  10.1092  10.1264  10.1485  10.1742  10.1783
    10.2071  10.3104  10.3173  10.3335  10.3532  10.3710  10.4173  10.4501
    10.4902  10.5148  10.5285  10.5414  10.5675  10.6125  10.6556  10.7073
    10.7435  10.7656  10.7839  10.7903  10.8082  10.8634  10.8830  10.9195
    10.9299  11.0132  11.0875  11.1497  11.2197  11.2453  11.2926  11.3315
    11.9026  11.9187  11.9911  12.0050  12.2141  12.3081  12.3741  12.4417
    12.4520  12.5090

          k =-0.5000 0.0000-0.6060 ( 31516 PWs)   bands (ev):

   -49.3880 -49.3605 -49.3425 -49.3136 -49.1908 -49.1624 -49.1129 -49.0346
   -48.9701 -48.9494 -48.9346 -48.9220 -48.8958 -48.8899 -48.8871 -48.8721
   -48.8616 -48.7762 -48.6894 -48.5563 -48.5074 -48.4829 -48.3887 -48.3235
   -25.7096 -25.6813 -25.6780 -25.6493 -25.6361 -25.6086 -25.5905 -25.5627
   -25.5515 -25.5246 -25.5232 -25.4967 -25.4428 -25.4392 -25.4322 -25.4154
   -25.4112 -25.3954 -25.3760 -25.3703 -25.3658 -25.3595 -25.3389 -25.3287
   -25.3024 -25.2983 -25.2540 -25.2461 -25.2275 -25.2243 -25.2005 -25.1756
   -25.1544 -25.1521 -25.1448 -25.1431 -25.1388 -25.1288 -25.1274 -25.1007
   -25.0905 -25.0843 -25.0838 -25.0725 -25.0631 -25.0461 -25.0451 -25.0252
   -25.0218 -25.0066 -25.0048 -24.9997 -24.9967 -24.9747 -24.9621 -24.9489
   -24.9287 -24.8681 -24.8186 -24.7908 -24.7500 -24.7447 -24.7117 -24.7051
   -24.6866 -24.6755 -24.6448 -24.6304 -24.5622 -24.5370 -24.4904 -24.4711
   -22.3556 -22.3454 -22.2530 -22.2222 -22.2191 -22.1867 -22.1718 -22.1583
   -22.1502 -22.1240 -22.0237 -21.9246 -21.7868 -21.7530 -21.6700 -11.9368
   -11.9056 -11.6446 -11.6334 -11.6026 -11.5055 -11.4768 -11.4696 -11.4358
   -11.4080 -11.3181 -11.3014 -11.2894 -11.2772 -11.2506 -11.2205 -11.1796
   -11.1572 -11.1543 -11.1451 -11.0917 -11.0291 -11.0260 -11.0030 -10.9961
   -10.9859 -10.9552 -10.9271 -10.8945 -10.8854 -10.8317 -10.8306 -10.8055
   -10.7775 -10.7497 -10.7226 -10.7162 -10.6404 -10.6247 -10.6152 -10.5761
   -10.5731 -10.5561 -10.5439 -10.5077 -10.4986 -10.4183 -10.3762 -10.3695
   -10.3593 -10.3486 -10.3281 -10.3235 -10.3137 -10.3030 -10.2904 -10.1854
   -10.1476 -10.1269 -10.0418 -10.0175  -9.8311  -9.8157  -9.7942  -9.7613
    -9.7570  -9.4654  -9.4128  -5.9123  -5.9043  -5.8647  -5.8419  -5.8201
    -5.8008  -5.7929  -5.7776  -5.7741  -5.7683  -5.7492  -5.7319  -5.7278
    -5.7186  -5.7121  -5.6983  -5.6957  -5.6888  -5.6865  -5.6804  -5.6712
    -5.6677  -5.6518  -5.6315  -5.6169  -5.6111  -5.6079  -5.6006  -5.5894
    -5.5763  -5.5516  -5.5143  -5.4758  -5.4549  -5.4146  -5.3870  -5.3587
[...]
    -5.4492  -5.4263  -5.3950  -5.3940  -5.3832  -5.3588  -5.3551  -5.3378
    -5.3101  -5.3014  -5.2910  -5.2842  -5.2660  -5.2436  -5.2389  -5.2309
     0.4814   0.4892   0.7279   0.7378   0.7547   0.7726   0.7953   0.8086
     0.8690   0.8871   0.9220   0.9459   0.9854   0.9961   1.0058   1.0366
     1.0595   1.0976   1.1392   1.1450   1.1895   1.1965   1.2074   1.2183
     1.3101   1.3748   1.3880   1.4080   1.4145   1.4625   1.4810   1.4868
     1.5550   1.5749   1.6606   1.7243   1.7269   1.7392   1.7697   1.7837
     1.7848   1.8599   1.8762   1.9173   1.9585   1.9771   2.0224   2.0532
     2.0724   2.0928   2.1054   2.1180   2.1253   2.1667   2.2322   2.2599
     2.2749   2.3338   2.3568   2.3653   2.3696   2.3835   2.3920   2.4030
     2.4503   2.4814   2.4889   2.4913   2.5026   2.6042   2.6080   2.6312
     2.6552   2.6654   2.6924   2.7335   2.7520   2.7721   2.7971   2.8328
     2.8408   2.8487   2.8594   2.9500   3.0423   3.0739   3.0855   3.0974
     3.1082   3.1178   3.1583   3.1733   3.1802   3.1874   3.2513   3.2616
     3.3080   3.3130   3.3454   3.4066   3.4202   3.4279   3.4620   3.5162
     3.5300   3.5681   3.5893   3.6138   3.6521   3.6813   3.6850   3.7018
     3.7328   3.7419   3.7541   3.7670   3.7753   3.7812   3.8056   3.8081
     3.8636   3.8790   3.8940   3.9193   3.9437   3.9483   3.9803   3.9973
     4.0341   4.0400   4.0596   4.0634   4.0934   4.1338   4.1418   4.1532
     4.1571   4.1785   4.1829   4.1869   4.1908   4.2126   4.2515   4.2713
     4.2952   4.3216   4.3277   4.3344   4.3453   4.3525   4.3775   4.3917
     4.3964   4.4153   4.4589   4.4750   4.4984   4.5465   4.5508   4.5752
     4.5827   4.5956   4.6126   4.6219   4.6508   4.6536   4.6732   4.6955
     4.7170   4.7395   4.7565   4.7686   4.7755   4.7789   4.7915   4.8014
     4.8359   4.8480   4.8828   4.8913   4.9034   4.9123   4.9155   4.9260
     4.9496   4.9771   4.9849   4.9909   5.0017   5.0037   5.0292   5.0347
     5.0937   5.1089   5.1506   5.1807   5.2013   5.2285   5.2373   5.2468
     5.2594   5.2646   5.3448   5.3754   8.4725   8.4856   8.7270   8.8072
     8.8191   8.8360   9.0027   9.0227   9.0702   9.1001   9.1123   9.1250
     9.1425   9.1723   9.2279   9.2379   9.2840   9.2921   9.3060   9.3204
     9.3765   9.3865   9.4365   9.4502   9.5281   9.5360   9.5405   9.5696
     9.5779   9.6204   9.6259   9.6357   9.6717   9.6939   9.8146   9.8384
     9.9229   9.9296   9.9340   9.9649   9.9904  10.0603  10.0813  10.0895
    10.1177  10.1408  10.2439  10.2592  10.3260  10.3457  10.3597  10.3731
    10.3838  10.5394  10.5585  10.5825  10.5887  10.6529  10.6941  10.7302
    10.7453  10.7616  10.8427  10.8469  10.9127  10.9462  10.9603  10.9837
    11.1306  11.1853  11.2443  11.2649  11.5763  11.6232  11.6455  11.6551
    11.6835  11.7502  11.9333  12.0203  12.0745  12.1097  12.1656  12.2091
    12.2815  12.3383

     the Fermi energy is     6.1711 ev

!    total energy              =  -12557.07516207 Ry
     Harris-Foulkes estimate   =  -12557.07516211 Ry
     estimated scf accuracy    <       0.00000006 Ry

     total all-electron energy =   -211664.211952 Ry

     The total energy is the sum of the following terms:

     one-electron contribution =   -3474.83632198 Ry
     hartree contribution      =    2143.76861295 Ry
     xc contribution           =   -1368.07912347 Ry
     ewald contribution        =   -3375.13617531 Ry
     one-center paw contrib.   =   -6482.70871767 Ry
     smearing contrib. (-TS)   =      -0.08343658 Ry

     convergence has been achieved in   9 iterations

     negative rho (up, down):  1.781E-04 0.000E+00

     Forces acting on atoms (cartesian axes, Ry/au):

     atom    1 type  1   force =     0.00047815    0.00054310    0.00044291
     atom    2 type  1   force =     0.00037113   -0.00067631   -0.00030001
     atom    3 type  1   force =    -0.00020944    0.00012265    0.00031014
     atom    4 type  1   force =     0.00044503    0.00042725   -0.00027243
     atom    5 type  1   force =    -0.00054725    0.00003519    0.00034842
     atom    6 type  1   force =    -0.00072407    0.00013664   -0.00092201
     atom    7 type  1   force =    -0.00043712   -0.00000550    0.00012257
     atom    8 type  1   force =    -0.00052382    0.00034932   -0.00128725
     atom    9 type  1   force =    -0.00044247   -0.00048085    0.00046125
     atom   10 type  1   force =    -0.00006160   -0.00015948   -0.00044136
     atom   11 type  1   force =    -0.00026555    0.00020017    0.00014172
     atom   12 type  1   force =     0.00014456   -0.00029336   -0.00047601
     atom   13 type  1   force =     0.00007569   -0.00056522    0.00060672
     atom   14 type  1   force =    -0.00027917   -0.00022132   -0.00062087
     atom   15 type  1   force =     0.00013269    0.00036360    0.00036699
     atom   16 type  1   force =    -0.00015275    0.00016305   -0.00064776
     atom   17 type  1   force =    -0.00007254   -0.00087129   -0.00024355
     atom   18 type  1   force =     0.00009639    0.00069649    0.00052081
     atom   19 type  1   force =    -0.00017605    0.00097971   -0.00023658
     atom   20 type  1   force =     0.00021767   -0.00081574    0.00024110
     atom   21 type  1   force =     0.00056921    0.00005354    0.00018700
     atom   22 type  1   force =     0.00049986   -0.00035078    0.00015987
     atom   23 type  1   force =     0.00037376    0.00031225    0.00025577
     atom   24 type  1   force =     0.00053553    0.00037137   -0.00023818
     atom   25 type  2   force =    -0.00016158    0.00013541   -0.00006289
     atom   26 type  2   force =     0.00005112   -0.00046076    0.00037365
     atom   27 type  2   force =     0.00026245   -0.00006514   -0.00016076
     atom   28 type  2   force =     0.00025357   -0.00000777    0.00022500
     atom   29 type  2   force =    -0.00039428    0.00005136   -0.00005600
     atom   30 type  2   force =    -0.00012514   -0.00022245   -0.00003020
     atom   31 type  2   force =    -0.00020757   -0.00026186   -0.00031292
     atom   32 type  2   force =    -0.00025670   -0.00019275   -0.00044187
     atom   33 type  2   force =    -0.00013636    0.00006843    0.00039970
     atom   34 type  2   force =    -0.00017815    0.00029207   -0.00039135
     atom   35 type  2   force =    -0.00001490   -0.00032962   -0.00008561
     atom   36 type  2   force =    -0.00021085   -0.00085610    0.00043128
     atom   37 type  2   force =    -0.00018791    0.00029211   -0.00022628
     atom   38 type  2   force =    -0.00028324    0.00041056   -0.00003953
     atom   39 type  2   force =    -0.00012593   -0.00093347   -0.00070035
     atom   40 type  3   force =    -0.00011338    0.00017954    0.00022738
     atom   41 type  3   force =     0.00043472    0.00011948   -0.00023627
     atom   42 type  3   force =    -0.00053960    0.00038645    0.00044584
     atom   43 type  3   force =     0.00047542   -0.00041791   -0.00021236
     atom   44 type  3   force =     0.00079086   -0.00022142   -0.00045586
     atom   45 type  3   force =     0.00085536    0.00027768    0.00052693
     atom   46 type  3   force =     0.00209729    0.00079880   -0.00037427
     atom   47 type  3   force =     0.00105343   -0.00018492    0.00040723
     atom   48 type  3   force =    -0.00002013   -0.00088067    0.00008901
     atom   49 type  3   force =     0.00024376    0.00036008   -0.00030635
     atom   50 type  3   force =    -0.00017306    0.00054384   -0.00000052
     atom   51 type  3   force =     0.00008091   -0.00066714   -0.00056754
     atom   52 type  3   force =     0.00036310   -0.00048481    0.00000518
     atom   53 type  3   force =     0.00015521   -0.00000488    0.00026415
     atom   54 type  3   force =     0.00055739    0.00077522    0.00023754
     atom   55 type  3   force =     0.00030507   -0.00022451   -0.00003349
     atom   56 type  3   force =     0.00059138   -0.00012830    0.00043548
     atom   57 type  3   force =     0.00057075   -0.00033900    0.00001905
     atom   58 type  3   force =     0.00040983    0.00031468    0.00015886
     atom   59 type  3   force =     0.00061652    0.00017687    0.00015714
     atom   60 type  3   force =    -0.00006171   -0.00030203    0.00045397
     atom   61 type  3   force =    -0.00028958    0.00006700   -0.00051425
     atom   62 type  3   force =    -0.00019407    0.00059446    0.00081092
     atom   63 type  3   force =    -0.00041366   -0.00014252   -0.00072583
     atom   64 type  3   force =     0.00026048   -0.00072029   -0.00192934
     atom   65 type  3   force =     0.00025782   -0.00003118    0.00181778
     atom   66 type  3   force =     0.00004899    0.00100110   -0.00187272
     atom   67 type  3   force =     0.00028705   -0.00018269    0.00151622
     atom   68 type  3   force =    -0.00116503   -0.00106103    0.00163121
     atom   69 type  3   force =    -0.00103780    0.00079423   -0.00135762
     atom   70 type  3   force =    -0.00036386    0.00123527    0.00177381
     atom   71 type  3   force =    -0.00101431   -0.00088447   -0.00163338
     atom   72 type  3   force =    -0.00034038   -0.00010414   -0.00026803
     atom   73 type  3   force =    -0.00055546   -0.00012506    0.00039392
     atom   74 type  3   force =    -0.00032482   -0.00020193    0.00026983
     atom   75 type  3   force =    -0.00030769    0.00009620    0.00006122
     atom   76 type  3   force =    -0.00117594    0.00036307   -0.00136168
     atom   77 type  3   force =    -0.00108588   -0.00079119    0.00134138
     atom   78 type  3   force =    -0.00113765   -0.00004934   -0.00094481
     atom   79 type  3   force =    -0.00110295    0.00086683    0.00078619
     atom   80 type  3   force =     0.00053321   -0.00026976    0.00030217
     atom   81 type  3   force =     0.00060617   -0.00018678   -0.00033885
     atom   82 type  3   force =     0.00082031    0.00029282    0.00065063
     atom   83 type  3   force =     0.00065484   -0.00014336   -0.00055796
     atom   84 type  3   force =    -0.00059097   -0.00061566    0.00033429
     atom   85 type  3   force =    -0.00054419    0.00051537   -0.00034869
     atom   86 type  3   force =    -0.00034173    0.00063612    0.00008178
     atom   87 type  3   force =    -0.00044817   -0.00086684   -0.00035051
     atom   88 type  3   force =    -0.00061088   -0.00080740    0.00038183
     atom   89 type  3   force =    -0.00048507    0.00061985   -0.00020694
     atom   90 type  3   force =    -0.00028047    0.00130944    0.00034193
     atom   91 type  3   force =    -0.00037329   -0.00091598   -0.00040492
     atom   92 type  3   force =     0.00143352    0.00143570   -0.00000923
     atom   93 type  3   force =     0.00107616   -0.00058942    0.00038533
     atom   94 type  3   force =     0.00103354   -0.00035759    0.00027448
     atom   95 type  3   force =     0.00093503    0.00034590    0.00011947
     atom   96 type  3   force =     0.00043105    0.00069273   -0.00018077
     atom   97 type  3   force =     0.00010584   -0.00079152    0.00027170
     atom   98 type  3   force =    -0.00027993   -0.00030357    0.00035931
     atom   99 type  3   force =     0.00006521    0.00078847   -0.00057128
     atom  100 type  3   force =    -0.00043516    0.00037826    0.00028449
     atom  101 type  3   force =    -0.00084930   -0.00039179    0.00029509
     atom  102 type  3   force =    -0.00022627    0.00057026    0.00010345
     atom  103 type  3   force =    -0.00069368   -0.00015216    0.00012714
     atom  104 type  3   force =     0.00028920   -0.00056421   -0.00025054
     atom  105 type  3   force =     0.00035121   -0.00005797    0.00033679
     atom  106 type  3   force =     0.00021267    0.00090151    0.00006603
     atom  107 type  3   force =     0.00024040   -0.00050832    0.00006675

     Total force =     0.010389     Total SCF correction =     0.001020

     number of scf cycles    =  25
     number of bfgs steps    =  24

     energy   old            =  -12557.0749560215 Ry
     energy   new            =  -12557.0751620715 Ry

     CASE: energy  _new < energy  _old

     new trust radius        =       0.0114646337 bohr
     new conv_thr            =       0.0000002061 Ry


ATOMIC_POSITIONS (angstrom)
Nb            2.0347054699       14.3230805730        3.0625371877
Nb            5.9537580892        2.6923182469        0.4048888250
Nb            5.9639843272       19.3028483642        6.3176408430
Nb            2.0433025631       30.9294345508        3.6132998621
Nb            2.0693711447        2.6840920723        0.4006843118
Nb            5.9815143826       14.3315025331        3.0725311776
Nb            5.9838329814       30.9369761617        3.6115933183
Nb            2.0601346414       19.2883039181        6.3201883910
Nb            2.0286147511       12.6637216632        0.1840840136
Nb            5.9380294187        4.3607977349        3.2716963473
Nb            5.9360294780       20.9422247545        3.4260520410
Nb            2.0260527737       29.2618767231        0.0227505340
Nb            2.1289288391        4.3446297228        3.2622585380
Nb            6.0439261246       12.6753646801        0.1972107737
Nb            6.0461738968       29.2756825724        6.4766769899
Nb            2.1475840963       20.9149270302        3.4345771340
Nb            4.0281357369       11.6528231741        2.6127663403
Nb            0.1134641264        5.3471756281        0.8344412217
Nb            0.1237651499       21.9795377940        5.8366449068
Nb            4.0312369374       28.2671078815        4.0613086587
Nb            4.0367497349       10.0555819380        6.1284842125
Nb            0.1232991511        6.9460936639        3.7834963050
Nb            0.1329976700       23.5544070765        2.8926739609
Nb            4.0414003196       26.6742775804        0.5543724575
K             4.0294582971       16.1344180429        6.0291608862
K             0.1121153812        1.1979546156        3.9342594135
K             0.0986650079       17.7680243480        2.7514100914
K             4.0257297354       32.4229085867        0.6961996034
K             0.1054823190       15.7265554048        5.9023230513
K             4.0241817299        1.2816884395        3.9438042961
K             0.1121939193       32.3317573350        0.7041094923
K             0.1172200619       11.3031594979        3.8691330328
K             4.0315746328        5.7315975264        6.0699683881
K             4.0354548724       22.3136101006        0.6555516845
K             0.1172112227       27.8805043641        2.8416548883
K             0.1133668558        9.2060430213        0.3730646623
K             4.0274279904        7.8456332698        3.1072386682
K             4.0340279795       24.3832421645        3.6249340773
K             0.1159568443       25.7715403917        6.3513515157
O             2.1325269511       15.9810833968        3.6754968422
O             6.1526846175        1.0044206765        6.2985194324
O             6.2675113774       17.6231234133        0.3498644668
O             2.2474874094       32.6181144337        3.0510056764
O             5.8764082092       15.9881809007        3.6891907021
O             1.8623610452        0.9983742936        6.2910718849
O             1.7408056296       17.6114593726        0.3548218586
O             5.7693972156       32.6225156429        3.0450731171
O             2.0040704734       13.3805248959        4.9174880847
O             5.9161869369        3.5999010423        4.9823654330
O             5.9204038799       20.2545230969        1.6835401674
O             2.0058201045       30.0337644351        1.7323929029
O             6.0219941962       13.3947207475        4.9304468735
O             2.1136567645        3.5833413246        4.9714863237
O             2.1175314380       20.2170852303        1.6987130104
O             6.0307595252       30.0457630320        1.7253963571
O             2.1661375359       10.7109489126        6.1849740336
O             6.0742396897        6.2878469437        3.7234517290
O             6.0938802194       22.9017665636        2.9542167190
O             2.1639234303       27.3360830834        0.4866159903
O             5.8961196606       10.7231454233        6.1846806126
O             1.9884934655        6.2718412807        3.7299234659
O             1.9874053979       22.8736622430        2.9417957545
O             5.9058898873       27.3519848905        0.4980768387
O             2.0800506444       14.4435593645        1.0930377784
O             6.0025292793        2.5570052266        2.3560356708
O             6.0875564310       19.2077428583        4.3557706667
O             2.0948012825       31.0649048580        5.5671218093
O             5.9511122932       14.4556081328        1.0966928164
O             2.0265881433        2.5416347848        2.3559614657
O             1.9477337712       19.1808185304        4.3536040940
O             5.9432036715       31.0776667333        5.5691067810
O             2.1479313476       12.0558783600        2.2525662607
O             6.0626258275        4.9185997925        1.1814661133
O             6.0641893455       21.5809761982        5.4922709656
O             2.1478009710       28.7002975594        4.4020409875
O             5.9077365608       12.0680579707        2.2613208195
O             1.9935434522        4.9045276500        1.1751926384
O             2.0113450812       21.5445769100        5.5042365860
O             5.9139627273       28.7116550348        4.3971061540
O             4.0283972401       12.4558568400        0.4442099318
O             0.1124648351        4.5256645279        3.0006506009
O             0.1217738078       21.1824420471        3.6761082920
O             4.0307846406       29.0969221099        6.2173466419
O             0.1158652669       12.4272909426        0.3363291734
O             4.0293955705        4.5520266555        3.0825581280
O             4.0368841367       21.2068913790        3.5964815787
O             0.1174474129       29.0782204008        6.3055963924
O             4.0437713916        9.9708805483        1.6427025222
O             7.9604140642        7.0195051724        1.8081700820
O             7.9758895768       23.6639317805        4.8661922489
O             4.0486025566       26.5967103192        5.0353903808
O             0.0935312341       14.0794076408        3.1051930800
O             4.0112262492        2.8523390902        0.3250318046
O             4.0134907608       19.3823096677        6.3145411323
O             0.0991957531       30.7813622696        3.5470335049
O             4.0137261136       13.7279653124        3.0881158276
O             7.9312258432        3.2756254438        0.3451758811
O             7.9339595384       19.9415887484        6.3551769342
O             4.0190124726       30.3382204660        3.5675065757
O             4.0460709743        8.3092632357        5.7505647959
O             0.1360406278        8.6819743166        4.1584081811
O             0.1469740519       25.3054302263        2.5220138831
O             4.0579387817       24.9403726825        0.9364753610
O             4.0288432123       10.8216219293        4.2499378747
O             0.1115655537        6.1684791171        5.6555386131
O             0.1225273738       22.8241039039        1.0069430648
O             4.0286504164       27.4554168401        2.4200245263



     Writing output data file ./outdir/knbo.save/
     NEW-OLD atomic charge density approx. for the potential

     Check: negative core charge=   -0.000190

     negative rho (up, down):  1.775E-04 0.000E+00

     total cpu time spent up to now is    64391.4 secs

     Self-consistent Calculation

     iteration #  1     ecut=    30.00 Ry     beta= 0.40
     Davidson diagonalization with overlap
     ethr =  1.00E-06,  avg # of iterations =  4.0

     Threshold (ethr) on eigenvalues was too large:
     Diagonalizing with lowered threshold

     Davidson diagonalization with overlap
