
     Program PWSCF v.6.5 starts on 14Jun2020 at 23:46:59 

     This program is part of the open-source Quantum ESPRESSO suite
     for quantum simulation of materials; please cite
         "P. Giannozzi et al., J. Phys.:Condens. Matter 21 395502 (2009);
         "P. Giannozzi et al., J. Phys.:Condens. Matter 29 465901 (2017);
          URL http://www.quantum-espresso.org", 
     in publications or presentations arising from this work. More details at
     http://www.quantum-espresso.org/quote

     Parallel version (MPI), running on    16 processors

     MPI processes distributed on     1 nodes
     R & G space division:  proc/nbgrp/npool/nimage =      16
     Reading input from knbo_relax.in

     Current dimensions of program PWSCF are:
     Max number of different atomic species (ntypx) = 10
     Max number of k-points (npk) =  40000
     Max angular momentum in pseudopotentials (lmaxx) =  3
               file Nb.pbe-spn-kjpaw_psl.0.3.0.UPF: wavefunction(s)  4S 4P renormalized
               file K.pbe-spn-kjpaw_psl.1.0.0.UPF: wavefunction(s)  3S renormalized
               file O.pbe-n-kjpaw_psl.0.1.UPF: wavefunction(s)  2P renormalized

     Subspace diagonalization in iterative solution of the eigenvalue problem:
     a serial algorithm will be used

 
     Parallelization info
     --------------------
     sticks:   dense  smooth     PW     G-vecs:    dense   smooth      PW
     Min         553     553    155                15734    15734    2348
     Max         555     555    157                15735    15735    2349
     Sum        8865    8865   2495               251747   251747   37577
 


     bravais-lattice index     =            8
     lattice parameter (alat)  =      14.7966  a.u.
     unit-cell volume          =   11335.9946 (a.u.)^3
     number of atoms/cell      =          108
     number of atomic types    =            3
     number of electrons       =       864.00
     number of Kohn-Sham states=          432
     kinetic-energy cutoff     =      30.0000  Ry
     charge density cutoff     =     120.0000  Ry
     convergence threshold     =      1.0E-04
     mixing beta               =       0.4000
     number of iterations used =            8  plain     mixing
     Exchange-correlation= SLA PW PBX PBC
                           (   1   4   3   4   0   0   0)
     nstep                     =           50


     celldm(1)=  14.796556  celldm(2)=   4.241378  celldm(3)=   0.825032
     celldm(4)=   0.000000  celldm(5)=   0.000000  celldm(6)=   0.000000

     crystal axes: (cart. coord. in units of alat)
               a(1) = (   1.000000   0.000000   0.000000 )  
               a(2) = (   0.000000   4.241378   0.000000 )  
               a(3) = (   0.000000   0.000000   0.825032 )  

     reciprocal axes: (cart. coord. in units 2 pi/alat)
               b(1) = (  1.000000  0.000000  0.000000 )  
               b(2) = (  0.000000  0.235772  0.000000 )  
               b(3) = (  0.000000  0.000000  1.212074 )  


     PseudoPot. # 1 for Nb read from file:
     ./Nb.pbe-spn-kjpaw_psl.0.3.0.UPF
     MD5 check sum: 411d72ad547312f8017e2943ceca08cc
     Pseudo is Projector augmented-wave + core cor, Zval = 13.0
     Generated using "atomic" code by A. Dal Corso v.5.0.99 svn rev. 10869
     Shape of augmentation charge: PSQ
     Using radial grid of 1227 points,  6 beta functions with: 
                l(1) =   0
                l(2) =   0
                l(3) =   1
                l(4) =   1
                l(5) =   2
                l(6) =   2
     Q(r) pseudized with 0 coefficients 


     PseudoPot. # 2 for K  read from file:
     ./K.pbe-spn-kjpaw_psl.1.0.0.UPF
     MD5 check sum: 7d58810084cac21f60fbe77ea2b688fd
     Pseudo is Projector augmented-wave + core cor, Zval =  9.0
     Generated using "atomic" code by A. Dal Corso v.5.1
     Shape of augmentation charge: PSQ
     Using radial grid of 1165 points,  6 beta functions with: 
                l(1) =   0
                l(2) =   0
                l(3) =   1
                l(4) =   1
                l(5) =   2
                l(6) =   2
     Q(r) pseudized with 0 coefficients 


     PseudoPot. # 3 for O  read from file:
     ./O.pbe-n-kjpaw_psl.0.1.UPF
     MD5 check sum: 0234752ac141de4415c5fc33072bef88
     Pseudo is Projector augmented-wave + core cor, Zval =  6.0
     Generated using "atomic" code by A. Dal Corso v.5.0.99 svn rev. 10869
     Shape of augmentation charge: BESSEL
     Using radial grid of 1095 points,  4 beta functions with: 
                l(1) =   0
                l(2) =   0
                l(3) =   1
                l(4) =   1
     Q(r) pseudized with 0 coefficients 


     atomic species   valence    mass     pseudopotential
        Nb            13.00    92.90638     Nb( 1.00)
        K              9.00    39.09830     K ( 1.00)
        O              6.00    15.99940     O ( 1.00)

     No symmetry found



   Cartesian axes

     site n.     atom                  positions (alat units)
         1           Nb  tau(   1) = (   0.2562277   1.8253102   0.3866222  )
         2           Nb  tau(   2) = (   0.7562277   0.3482066   0.0537862  )
         3           Nb  tau(   3) = (   0.7562277   2.4688969   0.7991382  )
         4           Nb  tau(   4) = (   0.2562277   3.9459992   0.4663022  )
         5           Nb  tau(   5) = (   0.2640977   0.3484188   0.0504045  )
         6           Nb  tau(   6) = (   0.7640977   1.8250982   0.3900041  )
         7           Nb  tau(   7) = (   0.7640977   3.9457872   0.4629204  )
         8           Nb  tau(   8) = (   0.2640977   2.4691091   0.8025201  )
         9           Nb  tau(   9) = (   0.2551167   1.6178645   0.0187397  )
        10           Nb  tau(  10) = (   0.7551167   0.5556525   0.4216688  )
        11           Nb  tau(  11) = (   0.7551167   2.6763428   0.4312557  )
        12           Nb  tau(  12) = (   0.2551167   3.7385535   0.0091529  )
        13           Nb  tau(  13) = (   0.2709378   0.5473393   0.4120332  )
        14           Nb  tau(  14) = (   0.7709378   1.6261775   0.0283752  )
        15           Nb  tau(  15) = (   0.7709378   3.7468665   0.8245492  )
        16           Nb  tau(  16) = (   0.2709378   2.6680296   0.4408912  )
        17           Nb  tau(  17) = (   0.5179387   1.4914290   0.3332006  )
        18           Nb  tau(  18) = (   0.0179387   0.6820880   0.1072079  )
        19           Nb  tau(  19) = (   0.0179387   2.8027783   0.7457166  )
        20           Nb  tau(  20) = (   0.5179387   3.6121180   0.5197239  )
        21           Nb  tau(  21) = (   0.5176387   1.2984462   0.7814405  )
        22           Nb  tau(  22) = (   0.0176387   0.8750706   0.4840000  )
        23           Nb  tau(  23) = (   0.0176387   2.9957609   0.3689245  )
        24           Nb  tau(  24) = (   0.5176387   3.4191352   0.0714840  )
        25           K   tau(  25) = (   0.5046457   2.0237644   0.7573932  )
        26           K   tau(  26) = (   0.0046457   0.1497526   0.5080471  )
        27           K   tau(  27) = (   0.0046457   2.2704429   0.3448773  )
        28           K   tau(  28) = (   0.5046457   4.1444534   0.0955312  )
        29           K   tau(  29) = (   0.0071558   2.0102344   0.7526106  )
        30           K   tau(  30) = (   0.5071558   0.1632826   0.5128299  )
        31           K   tau(  31) = (   0.5071558   2.2839729   0.3400946  )
        32           K   tau(  32) = (   0.0071558   4.1309234   0.1003139  )
        33           K   tau(  33) = (   0.0061538   1.4342552   0.4956957  )
        34           K   tau(  34) = (   0.5061538   0.7392617   0.7697448  )
        35           K   tau(  35) = (   0.5061538   2.8599520   0.0831797  )
        36           K   tau(  36) = (   0.0061538   3.5549442   0.3572289  )
        37           K   tau(  37) = (   0.0104618   1.1776519   0.0509217  )
        38           K   tau(  38) = (   0.5104618   0.9958651   0.3894867  )
        39           K   tau(  39) = (   0.5104618   3.1165554   0.4634377  )
        40           K   tau(  40) = (   0.0104618   3.2983409   0.8020027  )
        41           O   tau(  41) = (   0.2994167   2.0280057   0.4498203  )
        42           O   tau(  42) = (   0.7994167   0.1455112   0.8156202  )
        43           O   tau(  43) = (   0.7994167   2.2662015   0.0373043  )
        44           O   tau(  44) = (   0.2994167   4.1486948   0.4031042  )
        45           O   tau(  45) = (   0.7425008   2.0534328   0.4501308  )
        46           O   tau(  46) = (   0.2425008   0.1200842   0.8153097  )
        47           O   tau(  47) = (   0.2425008   2.2407745   0.0376148  )
        48           O   tau(  48) = (   0.7425008   4.1741218   0.4027937  )
        49           O   tau(  49) = (   0.2693618   1.6999351   0.6307814  )
        50           O   tau(  50) = (   0.7693618   0.4735819   0.6346590  )
        51           O   tau(  51) = (   0.7693618   2.5942722   0.2182654  )
        52           O   tau(  52) = (   0.2693618   3.8206241   0.2221430  )
        53           O   tau(  53) = (   0.7751678   1.7386165   0.6461344  )
        54           O   tau(  54) = (   0.2751678   0.4349004   0.6193060  )
        55           O   tau(  55) = (   0.2751678   2.5555907   0.2336184  )
        56           O   tau(  56) = (   0.7751678   3.8593055   0.2067900  )
        57           O   tau(  57) = (   0.2790598   1.3755545   0.7739236  )
        58           O   tau(  58) = (   0.7790598   0.7979625   0.4915169  )
        59           O   tau(  59) = (   0.7790598   2.9186527   0.3614077  )
        60           O   tau(  60) = (   0.2790598   3.4962436   0.0790009  )
        61           O   tau(  61) = (   0.7705008   1.3765174   0.8060503  )
        62           O   tau(  62) = (   0.2705008   0.7969996   0.4593900  )
        63           O   tau(  63) = (   0.2705008   2.9176899   0.3935344  )
        64           O   tau(  64) = (   0.7705008   3.4972064   0.0468741  )
        65           O   tau(  65) = (   0.2615687   1.8433361   0.1417074  )
        66           O   tau(  66) = (   0.7615687   0.3301808   0.2987011  )
        67           O   tau(  67) = (   0.7615687   2.4508711   0.5542234  )
        68           O   tau(  68) = (   0.2615687   3.9640252   0.7112171  )
        69           O   tau(  69) = (   0.7654097   1.8935328   0.1506627  )
        70           O   tau(  70) = (   0.2654097   0.2799842   0.2897457  )
        71           O   tau(  71) = (   0.2654097   2.4006745   0.5631787  )
        72           O   tau(  72) = (   0.7654097   4.0142218   0.7022617  )
        73           O   tau(  73) = (   0.2751627   1.5532259   0.2959860  )
        74           O   tau(  74) = (   0.7751627   0.6202911   0.1444226  )
        75           O   tau(  75) = (   0.7751627   2.7409814   0.7085019  )
        76           O   tau(  76) = (   0.2751627   3.6739149   0.5569386  )
        77           O   tau(  77) = (   0.7448008   1.5219881   0.2804208  )
        78           O   tau(  78) = (   0.2448008   0.6515289   0.1599876  )
        79           O   tau(  79) = (   0.2448008   2.7722192   0.6929368  )
        80           O   tau(  80) = (   0.7448008   3.6426771   0.5725036  )
        81           O   tau(  81) = (   0.5161857   1.5998386   0.0644720  )
        82           O   tau(  82) = (   0.0161857   0.5736783   0.3759364  )
        83           O   tau(  83) = (   0.0161857   2.6943686   0.4769880  )
        84           O   tau(  84) = (   0.5161857   3.7205276   0.7884524  )
        85           O   tau(  85) = (   0.0130028   1.5826186   0.0399042  )
        86           O   tau(  86) = (   0.5130028   0.5908983   0.4005042  )
        87           O   tau(  87) = (   0.5130028   2.7115886   0.4524202  )
        88           O   tau(  88) = (   0.0130028   3.7033077   0.8130202  )
        89           O   tau(  89) = (   0.4916958   1.2674885   0.2062323  )
        90           O   tau(  90) = (   0.9916958   0.9060285   0.2341761  )
        91           O   tau(  91) = (   0.9916958   3.0267188   0.6187483  )
        92           O   tau(  92) = (   0.4916958   3.3881775   0.6466921  )
        93           O   tau(  93) = (   0.0062381   1.7979958   0.4122354  )
        94           O   tau(  94) = (   0.5062381   0.3755212   0.0281732  )
        95           O   tau(  95) = (   0.5062381   2.4962115   0.8247513  )
        96           O   tau(  96) = (   0.0062381   3.9186848   0.4406891  )
        97           O   tau(  97) = (   0.4958277   1.7491775   0.4042243  )
        98           O   tau(  98) = (   0.9958277   0.4243395   0.0361842  )
        99           O   tau(  99) = (   0.9958277   2.5450298   0.8167402  )
       100           O   tau( 100) = (   0.4958277   3.8698665   0.4487001  )
       101           O   tau( 101) = (   0.5320898   1.0702165   0.7360670  )
       102           O   tau( 102) = (   0.0320898   1.1033005   0.5293734  )
       103           O   tau( 103) = (   0.0320898   3.2239895   0.3235511  )
       104           O   tau( 104) = (   0.5320898   3.1909068   0.1168575  )
       105           O   tau( 105) = (   0.5345277   1.3996456   0.5398547  )
       106           O   tau( 106) = (   0.0345277   0.7738714   0.7255858  )
       107           O   tau( 107) = (   0.0345277   2.8945617   0.1273387  )
       108           O   tau( 108) = (   0.5345277   3.5203346   0.3130699  )

     number of k points=     4
                       cart. coord. in units 2pi/alat
        k(    1) = (   0.0000000   0.0000000   0.0000000), wk =   0.5000000
        k(    2) = (   0.0000000   0.0000000  -0.6060372), wk =   0.5000000
        k(    3) = (  -0.5000000   0.0000000   0.0000000), wk =   0.5000000
        k(    4) = (  -0.5000000   0.0000000  -0.6060372), wk =   0.5000000

     Dense  grid:   251747 G-vectors     FFT dimensions: (  54, 225,  45)

     Estimated max dynamical RAM per process >     419.33 MB

     Estimated total dynamical RAM >       6.55 GB

     Check: negative core charge=   -0.000190

     Initial potential from superposition of free atoms

     starting charge  863.64768, renormalised to  864.00000
     Starting wfcs are  640 randomized atomic wfcs
     Checking if some PAW data can be deallocated... 

     total cpu time spent up to now is       61.9 secs

     Self-consistent Calculation

     iteration #  1     ecut=    30.00 Ry     beta= 0.40
     Davidson diagonalization with overlap
     ethr =  1.00E-02,  avg # of iterations =  1.5

     total cpu time spent up to now is      155.3 secs

     total energy              =  -12651.38305574 Ry
     Harris-Foulkes estimate   =  -12683.37358674 Ry
     estimated scf accuracy    <      56.35638682 Ry

     iteration #  2     ecut=    30.00 Ry     beta= 0.40
     Davidson diagonalization with overlap
     ethr =  6.52E-03,  avg # of iterations =  4.5

     total cpu time spent up to now is      429.7 secs

     total energy              =  -12657.01629023 Ry
     Harris-Foulkes estimate   =  -12676.16991745 Ry
     estimated scf accuracy    <      56.49912755 Ry

     iteration #  3     ecut=    30.00 Ry     beta= 0.40
     Davidson diagonalization with overlap
     ethr =  6.52E-03,  avg # of iterations =  3.0

     total cpu time spent up to now is      593.3 secs

     total energy              =  -12669.40960237 Ry
     Harris-Foulkes estimate   =  -12671.68691594 Ry
     estimated scf accuracy    <       9.52585000 Ry

     iteration #  4     ecut=    30.00 Ry     beta= 0.40
     Davidson diagonalization with overlap
     ethr =  1.10E-03,  avg # of iterations =  2.0

     total cpu time spent up to now is      707.1 secs

     total energy              =  -12669.41196556 Ry
     Harris-Foulkes estimate   =  -12670.03600636 Ry
     estimated scf accuracy    <       2.39192862 Ry

     iteration #  5     ecut=    30.00 Ry     beta= 0.40
     Davidson diagonalization with overlap
     ethr =  2.77E-04,  avg # of iterations =  3.0

     total cpu time spent up to now is      860.8 secs

     total energy              =  -12669.64517744 Ry
     Harris-Foulkes estimate   =  -12669.73377987 Ry
     estimated scf accuracy    <       0.23270726 Ry

     iteration #  6     ecut=    30.00 Ry     beta= 0.40
     Davidson diagonalization with overlap
     ethr =  2.69E-05,  avg # of iterations =  4.0

     negative rho (up, down):  1.088E-07 0.000E+00

     total cpu time spent up to now is     1073.6 secs

     total energy              =  -12669.68765380 Ry
     Harris-Foulkes estimate   =  -12669.73361295 Ry
     estimated scf accuracy    <       0.23834697 Ry

     iteration #  7     ecut=    30.00 Ry     beta= 0.40
     Davidson diagonalization with overlap
     ethr =  2.69E-05,  avg # of iterations =  3.0

     negative rho (up, down):  5.905E-07 0.000E+00

     total cpu time spent up to now is     1203.6 secs

     total energy              =  -12669.69635390 Ry
     Harris-Foulkes estimate   =  -12669.70642043 Ry
     estimated scf accuracy    <       0.05462650 Ry

     iteration #  8     ecut=    30.00 Ry     beta= 0.40
     Davidson diagonalization with overlap
     ethr =  6.32E-06,  avg # of iterations =  3.0

     negative rho (up, down):  8.430E-07 0.000E+00

     total cpu time spent up to now is     1335.6 secs

     total energy              =  -12669.69662107 Ry
     Harris-Foulkes estimate   =  -12669.70095515 Ry
     estimated scf accuracy    <       0.01819754 Ry

     iteration #  9     ecut=    30.00 Ry     beta= 0.40
     Davidson diagonalization with overlap
     ethr =  2.11E-06,  avg # of iterations =  3.0

     negative rho (up, down):  1.013E-06 0.000E+00

     total cpu time spent up to now is     1489.4 secs

     total energy              =  -12669.69814695 Ry
     Harris-Foulkes estimate   =  -12669.69902773 Ry
     estimated scf accuracy    <       0.00286911 Ry

     iteration # 10     ecut=    30.00 Ry     beta= 0.40
     Davidson diagonalization with overlap
     ethr =  3.32E-07,  avg # of iterations =  3.8

     negative rho (up, down):  1.218E-06 0.000E+00

     total cpu time spent up to now is     1677.5 secs

     total energy              =  -12669.69871898 Ry
     Harris-Foulkes estimate   =  -12669.69880636 Ry
     estimated scf accuracy    <       0.00059797 Ry

     iteration # 11     ecut=    30.00 Ry     beta= 0.40
     Davidson diagonalization with overlap
     ethr =  6.92E-08,  avg # of iterations =  2.0

     negative rho (up, down):  1.363E-06 0.000E+00

     total cpu time spent up to now is     1787.4 secs

     total energy              =  -12669.69868672 Ry
     Harris-Foulkes estimate   =  -12669.69875947 Ry
     estimated scf accuracy    <       0.00028084 Ry

     iteration # 12     ecut=    30.00 Ry     beta= 0.40
     Davidson diagonalization with overlap
     ethr =  3.25E-08,  avg # of iterations =  3.0

     negative rho (up, down):  1.422E-06 0.000E+00

     total cpu time spent up to now is     1961.1 secs

     End of self-consistent calculation

          k = 0.0000 0.0000 0.0000 ( 31457 PWs)   bands (ev):

   -49.1918 -49.1916 -49.1915 -49.1914 -48.8277 -48.8276 -48.8274 -48.8272
   -48.7897 -48.7894 -48.7894 -48.7892 -48.5664 -48.5662 -48.5661 -48.5658
   -48.5249 -48.5247 -48.5247 -48.5246 -48.3811 -48.3808 -48.3807 -48.3805
   -25.5044 -25.5043 -25.5043 -25.5041 -25.4324 -25.4322 -25.4322 -25.4321
   -25.2733 -25.2731 -25.2726 -25.2725 -25.1762 -25.1760 -25.1756 -25.1755
   -25.0791 -25.0790 -25.0789 -25.0787 -25.0597 -25.0597 -25.0595 -25.0592
   -25.0470 -25.0470 -25.0468 -25.0465 -25.0317 -25.0316 -25.0316 -25.0313
   -25.0067 -25.0066 -25.0065 -25.0064 -24.9626 -24.9625 -24.9624 -24.9622
   -24.9349 -24.9348 -24.9346 -24.9346 -24.8321 -24.8320 -24.8320 -24.8318
   -24.8054 -24.8052 -24.8051 -24.8048 -24.7546 -24.7545 -24.7544 -24.7542
   -24.6619 -24.6618 -24.6616 -24.6610 -24.6348 -24.6348 -24.6347 -24.6346
   -24.5471 -24.5469 -24.5467 -24.5466 -24.5282 -24.5279 -24.5279 -24.5277
   -22.1230 -22.1230 -22.1206 -22.1206 -21.9422 -21.9421 -21.9411 -21.9410
   -21.7796 -21.7794 -21.7792 -21.7791 -21.6789 -21.6789 -21.6781 -21.6780
   -11.9005 -11.9003 -11.8980 -11.8978 -11.4458 -11.4456 -11.4451 -11.4448
   -11.2594 -11.2589 -11.2571 -11.2565 -10.9945 -10.9943 -10.9888 -10.9886
   -10.9338 -10.9334 -10.9284 -10.9279 -10.8180 -10.8173 -10.8145 -10.8136
   -10.6416 -10.6404 -10.6404 -10.6392 -10.5292 -10.5288 -10.5240 -10.5235
   -10.4080 -10.4074 -10.4060 -10.4056 -10.3878 -10.3860 -10.3788 -10.3759
   -10.2348 -10.2343 -10.2208 -10.2205 -10.1567 -10.1556 -10.1543 -10.1532
   -10.1229 -10.1227 -10.1192 -10.1190 -10.0270 -10.0266  -9.9975  -9.9974
    -9.7506  -9.7505  -9.7501  -9.7499  -9.6692  -9.6661  -9.6549  -9.6541
    -9.6535  -9.6498  -9.6405  -9.6389  -5.6942  -5.6940  -5.6726  -5.6726
    -5.6396  -5.6395  -5.6310  -5.6309  -5.5993  -5.5992  -5.5582  -5.5581
    -5.4654  -5.4653  -5.4557  -5.4556  -5.4415  -5.4413  -5.4182  -5.4182
    -5.3897  -5.3894  -5.3889  -5.3881  -5.3873  -5.3870  -5.3532  -5.3530
    -5.2810  -5.2809  -5.2807  -5.2805  -5.2528  -5.2524  -5.2515  -5.2513
    -5.2157  -5.2157  -5.2117  -5.2115  -5.1817  -5.1816  -5.1679  -5.1678
    -5.0981  -5.0979  -5.0945  -5.0943   0.4780   0.4787   0.4807   0.4828
     0.7010   0.7023   0.7052   0.7054   0.8931   0.8951   0.8980   0.8984
     1.0952   1.0990   1.1079   1.1142   1.3157   1.3189   1.3193   1.3194
     1.3709   1.3802   1.3822   1.3882   1.5999   1.6100   1.6207   1.6292
     1.6903   1.6993   1.7064   1.7164   1.8435   1.8462   1.8563   1.8603
     1.9205   1.9310   1.9383   1.9533   1.9946   2.0011   2.0032   2.0077
     2.2367   2.2383   2.2404   2.2487   2.3394   2.3440   2.3616   2.3687
     2.4011   2.4173   2.4273   2.4484   2.4730   2.4805   2.4870   2.4999
     2.5196   2.5420   2.5425   2.5456   2.6316   2.6339   2.6377   2.6571
     2.6655   2.6675   2.6746   2.6792   2.8320   2.8369   2.8705   2.8735
     2.9720   2.9736   2.9800   2.9846   3.0693   3.0859   3.1319   3.1411
     3.2551   3.2675   3.2792   3.2873   3.3028   3.3205   3.3422   3.3486
     3.3638   3.3746   3.4168   3.4229   3.4400   3.4468   3.4584   3.4728
     3.6214   3.6408   3.6440   3.6580   3.7423   3.7607   3.7756   3.7782
     3.7860   3.8132   3.8156   3.8286   3.9249   3.9341   3.9641   3.9918
     4.0333   4.0455   4.0530   4.0649   4.0936   4.1080   4.1098   4.1280
     4.1672   4.1740   4.1778   4.1951   4.2059   4.2077   4.2349   4.2543
     4.2662   4.2978   4.3297   4.3459   4.3485   4.3618   4.3767   4.3886
     4.4031   4.4039   4.4190   4.4227   4.4254   4.4322   4.4903   4.5000
     4.5154   4.5189   4.5403   4.5449   4.6698   4.6729   4.6870   4.6880
     4.6931   4.7146   4.7207   4.7501   4.8264   4.8354   4.8397   4.8677
     4.9039   4.9269   4.9341   4.9563   4.9718   4.9749   4.9960   5.0147
     5.0343   5.0540   5.0563   5.0807   5.0869   5.0938   5.1182   5.1234
     5.2182   5.2451   5.2518   5.2644   5.2761   5.2849   5.3139   5.3575
     5.3629   5.3775   5.4011   5.4083   5.4345   5.4443   5.4574   5.4651
     5.4905   5.4930   5.4941   5.5000   5.6896   5.6941   5.7033   5.7036

          k = 0.0000 0.0000-0.6060 ( 31394 PWs)   bands (ev):

   -49.1917 -49.1915 -49.1914 -49.1912 -48.8277 -48.8277 -48.8275 -48.8272
   -48.7896 -48.7893 -48.7893 -48.7891 -48.5657 -48.5655 -48.5654 -48.5650
   -48.5255 -48.5253 -48.5253 -48.5252 -48.3811 -48.3808 -48.3807 -48.3805
   -25.4999 -25.4997 -25.4997 -25.4996 -25.4291 -25.4289 -25.4289 -25.4288
   -25.2772 -25.2769 -25.2765 -25.2764 -25.1722 -25.1719 -25.1716 -25.1715
   -25.0796 -25.0795 -25.0794 -25.0792 -25.0578 -25.0578 -25.0576 -25.0574
   -25.0450 -25.0450 -25.0449 -25.0446 -25.0303 -25.0302 -25.0301 -25.0298
   -24.9863 -24.9862 -24.9861 -24.9860 -24.9548 -24.9546 -24.9545 -24.9544
   -24.9425 -24.9424 -24.9422 -24.9422 -24.8270 -24.8270 -24.8269 -24.8267
   -24.8172 -24.8172 -24.8171 -24.8168 -24.7677 -24.7674 -24.7674 -24.7670
   -24.6629 -24.6628 -24.6626 -24.6621 -24.6430 -24.6429 -24.6429 -24.6427
   -24.5520 -24.5518 -24.5514 -24.5513 -24.5302 -24.5302 -24.5300 -24.5300
   -22.1212 -22.1212 -22.1212 -22.1212 -21.9421 -21.9421 -21.9420 -21.9420
   -21.7785 -21.7782 -21.7781 -21.7779 -21.6798 -21.6798 -21.6792 -21.6791
   -11.8235 -11.8235 -11.8224 -11.8224 -11.3633 -11.3632 -11.3628 -11.3628
   -11.3278 -11.3276 -11.3275 -11.3273 -10.9706 -10.9704 -10.9620 -10.9618
   -10.8315 -10.8315 -10.8298 -10.8297 -10.7928 -10.7925 -10.7924 -10.7921
   -10.6427 -10.6425 -10.6424 -10.6422 -10.5835 -10.5833 -10.5756 -10.5753
   -10.5225 -10.5224 -10.5222 -10.5222 -10.4040 -10.4038 -10.3984 -10.3982
   -10.2845 -10.2845 -10.2837 -10.2836 -10.1571 -10.1571 -10.1481 -10.1480
   -10.1326 -10.1325 -10.1255 -10.1254 -10.0300 -10.0298 -10.0294 -10.0292
    -9.7534  -9.7533  -9.7531  -9.7530  -9.6625  -9.6624  -9.6599  -9.6598
    -9.6540  -9.6538  -9.6511  -9.6509  -5.6918  -5.6918  -5.6917  -5.6917
    -5.6150  -5.6149  -5.6149  -5.6148  -5.5769  -5.5769  -5.5767  -5.5767
    -5.4708  -5.4708  -5.4708  -5.4707  -5.4283  -5.4283  -5.4282  -5.4282
    -5.3700  -5.3699  -5.3698  -5.3698  -5.3575  -5.3573  -5.3570  -5.3569
    -5.2797  -5.2796  -5.2781  -5.2780  -5.2609  -5.2607  -5.2607  -5.2606
    -5.2202  -5.2201  -5.2190  -5.2189  -5.1816  -5.1815  -5.1708  -5.1707
    -5.0928  -5.0926  -5.0895  -5.0894   0.4879   0.4880   0.4887   0.4888
     0.8088   0.8090   0.8193   0.8194   0.9365   0.9366   0.9374   0.9375
     1.1499   1.1499   1.1587   1.1588   1.2482   1.2484   1.2510   1.2512
     1.3043   1.3044   1.3127   1.3127   1.5426   1.5428   1.5499   1.5500
     1.6234   1.6236   1.6331   1.6333   1.7762   1.7763   1.7982   1.7983
     1.8624   1.8625   1.8719   1.8720   1.9754   1.9755   1.9831   1.9832
     2.0322   2.0325   2.0382   2.0385   2.2233   2.2234   2.2385   2.2386
     2.3152   2.3152   2.3239   2.3239   2.5296   2.5298   2.5349   2.5351
     2.6238   2.6239   2.6359   2.6360   2.7215   2.7216   2.7356   2.7357
     2.8723   2.8725   2.9007   2.9009   2.9364   2.9365   2.9434   2.9436
     3.0322   3.0324   3.0418   3.0420   3.1798   3.1800   3.1902   3.1903
     3.2089   3.2089   3.2131   3.2132   3.4499   3.4500   3.4576   3.4577
     3.5175   3.5177   3.5356   3.5358   3.5864   3.5865   3.6036   3.6037
     3.6517   3.6518   3.6571   3.6572   3.7695   3.7697   3.7778   3.7779
     3.9038   3.9040   3.9157   3.9158   3.9799   3.9799   4.0155   4.0156
     4.0280   4.0281   4.0495   4.0496   4.0826   4.0827   4.1134   4.1135
     4.1902   4.1903   4.2213   4.2214   4.2440   4.2440   4.2702   4.2702
     4.2944   4.2945   4.3220   4.3221   4.3740   4.3741   4.3947   4.3948
     4.4474   4.4474   4.4567   4.4568   4.5301   4.5301   4.5413   4.5413
     4.5625   4.5627   4.5692   4.5694   4.6741   4.6742   4.6884   4.6887
     4.7323   4.7325   4.7410   4.7411   4.7994   4.7995   4.8254   4.8256
     4.8942   4.8943   4.9032   4.9033   4.9246   4.9247   4.9291   4.9293
     4.9884   4.9886   4.9903   4.9905   5.0612   5.0614   5.0890   5.0890
     5.1247   5.1248   5.1442   5.1444   5.2552   5.2555   5.2698   5.2700
     5.3380   5.3383   5.3456   5.3457   5.4502   5.4504   5.4569   5.4571
     5.4797   5.4799   5.4918   5.4921   5.6758   5.6759   5.6861   5.6862

          k =-0.5000 0.0000 0.0000 ( 31506 PWs)   bands (ev):

   -49.1918 -49.1916 -49.1916 -49.1914 -48.8277 -48.8277 -48.8275 -48.8272
   -48.7897 -48.7894 -48.7894 -48.7892 -48.5664 -48.5662 -48.5661 -48.5658
   -48.5249 -48.5247 -48.5247 -48.5246 -48.3811 -48.3808 -48.3807 -48.3805
   -25.4984 -25.4983 -25.4983 -25.4981 -25.4200 -25.4197 -25.4197 -25.4197
   -25.2736 -25.2734 -25.2729 -25.2728 -25.1755 -25.1753 -25.1749 -25.1748
   -25.1000 -25.0999 -25.0999 -25.0998 -25.0656 -25.0656 -25.0654 -25.0650
   -25.0458 -25.0458 -25.0454 -25.0451 -25.0151 -25.0151 -25.0150 -25.0147
   -25.0035 -25.0034 -25.0033 -25.0032 -24.9618 -24.9617 -24.9616 -24.9614
   -24.9342 -24.9341 -24.9339 -24.9339 -24.8300 -24.8300 -24.8299 -24.8297
   -24.8064 -24.8063 -24.8062 -24.8060 -24.7606 -24.7604 -24.7604 -24.7602
   -24.6626 -24.6625 -24.6622 -24.6617 -24.6528 -24.6527 -24.6527 -24.6526
   -24.5446 -24.5444 -24.5440 -24.5440 -24.5257 -24.5255 -24.5254 -24.5253
   -22.1215 -22.1215 -22.1215 -22.1214 -21.9420 -21.9420 -21.9420 -21.9419
   -21.7795 -21.7792 -21.7792 -21.7790 -21.6785 -21.6785 -21.6783 -21.6782
   -11.7092 -11.7092 -11.7089 -11.7089 -11.3215 -11.3214 -11.3213 -11.3212
   -11.1798 -11.1797 -11.1795 -11.1795 -10.9607 -10.9604 -10.9604 -10.9602
   -10.8843 -10.8842 -10.8840 -10.8840 -10.8313 -10.8313 -10.8311 -10.8311
   -10.7784 -10.7783 -10.7782 -10.7782 -10.6656 -10.6656 -10.6652 -10.6652
   -10.6112 -10.6111 -10.6109 -10.6109 -10.4113 -10.4112 -10.4111 -10.4110
   -10.2320 -10.2319 -10.2318 -10.2318 -10.1648 -10.1647 -10.1627 -10.1627
   -10.1377 -10.1377 -10.1354 -10.1354 -10.0132 -10.0132 -10.0127 -10.0127
    -9.7520  -9.7519  -9.7517  -9.7515  -9.6637  -9.6637  -9.6622  -9.6621
    -9.6505  -9.6503  -9.6490  -9.6488  -5.6791  -5.6790  -5.6790  -5.6790
    -5.6400  -5.6400  -5.6399  -5.6399  -5.5518  -5.5517  -5.5517  -5.5516
    -5.4647  -5.4646  -5.4646  -5.4645  -5.4349  -5.4348  -5.4347  -5.4347
    -5.3909  -5.3909  -5.3907  -5.3907  -5.3857  -5.3855  -5.3855  -5.3853
    -5.2810  -5.2807  -5.2807  -5.2805  -5.2508  -5.2506  -5.2505  -5.2505
    -5.2125  -5.2124  -5.2122  -5.2122  -5.1757  -5.1756  -5.1754  -5.1754
    -5.0945  -5.0944  -5.0943  -5.0942   0.5938   0.5939   0.5944   0.5944
     0.9460   0.9460   0.9465   0.9465   1.0775   1.0776   1.0779   1.0779
     1.1995   1.1996   1.1999   1.1999   1.3184   1.3185   1.3193   1.3193
     1.4089   1.4090   1.4095   1.4095   1.5871   1.5871   1.5876   1.5877
     1.7162   1.7163   1.7165   1.7166   1.8645   1.8646   1.8656   1.8657
     1.9363   1.9363   1.9385   1.9386   2.0193   2.0194   2.0198   2.0198
     2.0952   2.0953   2.0955   2.0955   2.3530   2.3530   2.3575   2.3576
     2.3810   2.3810   2.3813   2.3813   2.4846   2.4846   2.4850   2.4851
     2.5089   2.5090   2.5105   2.5106   2.7064   2.7064   2.7212   2.7212
     2.7506   2.7506   2.7670   2.7670   2.9082   2.9083   2.9086   2.9086
     2.9735   2.9736   2.9796   2.9796   3.1316   3.1316   3.1360   3.1360
     3.2059   3.2059   3.2084   3.2085   3.2424   3.2425   3.2524   3.2524
     3.3177   3.3177   3.3206   3.3206   3.3808   3.3809   3.3824   3.3824
     3.5746   3.5746   3.5888   3.5889   3.6493   3.6493   3.6636   3.6636
     3.7027   3.7027   3.7113   3.7113   3.8379   3.8380   3.8598   3.8598
     3.9012   3.9012   3.9030   3.9031   4.0662   4.0662   4.0687   4.0688
     4.1199   4.1199   4.1305   4.1306   4.1811   4.1812   4.1815   4.1815
     4.3121   4.3121   4.3192   4.3192   4.3460   4.3461   4.3590   4.3590
     4.4136   4.4137   4.4186   4.4186   4.5404   4.5404   4.5518   4.5518
     4.6170   4.6170   4.6343   4.6343   4.6955   4.6956   4.7125   4.7126
     4.8663   4.8663   4.8685   4.8686   4.9083   4.9083   4.9110   4.9111
     4.9788   4.9789   4.9825   4.9826   5.0209   5.0209   5.0216   5.0216
     5.1125   5.1125   5.1178   5.1178   5.1680   5.1680   5.1684   5.1685
     5.2221   5.2221   5.2234   5.2235   5.2454   5.2454   5.2625   5.2625
     5.3259   5.3259   5.3322   5.3322   5.4179   5.4180   5.4245   5.4245
     5.4981   5.4981   5.5009   5.5009   5.6389   5.6389   5.6414   5.6414

          k =-0.5000 0.0000-0.6060 ( 31516 PWs)   bands (ev):

   -49.1917 -49.1915 -49.1915 -49.1913 -48.8278 -48.8277 -48.8275 -48.8273
   -48.7897 -48.7894 -48.7894 -48.7892 -48.5657 -48.5656 -48.5655 -48.5651
   -48.5255 -48.5254 -48.5253 -48.5252 -48.3811 -48.3809 -48.3807 -48.3806
   -25.4928 -25.4927 -25.4927 -25.4925 -25.4177 -25.4174 -25.4174 -25.4174
   -25.2775 -25.2773 -25.2769 -25.2768 -25.1717 -25.1714 -25.1711 -25.1711
   -25.1000 -25.0999 -25.0999 -25.0998 -25.0666 -25.0666 -25.0664 -25.0661
   -25.0410 -25.0410 -25.0406 -25.0404 -25.0166 -25.0165 -25.0165 -25.0162
   -24.9818 -24.9817 -24.9816 -24.9814 -24.9535 -24.9533 -24.9532 -24.9531
   -24.9413 -24.9412 -24.9411 -24.9410 -24.8280 -24.8279 -24.8279 -24.8277
   -24.8170 -24.8170 -24.8168 -24.8167 -24.7687 -24.7684 -24.7684 -24.7681
   -24.6650 -24.6650 -24.6650 -24.6649 -24.6633 -24.6632 -24.6631 -24.6626
   -24.5509 -24.5506 -24.5502 -24.5501 -24.5264 -24.5264 -24.5262 -24.5262
   -22.1209 -22.1209 -22.1208 -22.1208 -21.9425 -21.9424 -21.9424 -21.9423
   -21.7784 -21.7780 -21.7780 -21.7778 -21.6795 -21.6795 -21.6793 -21.6792
   -11.5946 -11.5943 -11.5943 -11.5939 -11.2761 -11.2759 -11.2756 -11.2754
   -11.0839 -11.0835 -11.0832 -11.0828 -10.9995 -10.9994 -10.9989 -10.9989
   -10.9242 -10.9241 -10.9227 -10.9226 -10.8795 -10.8795 -10.8788 -10.8787
   -10.7934 -10.7934 -10.7933 -10.7932 -10.6699 -10.6699 -10.6688 -10.6688
   -10.5852 -10.5852 -10.5843 -10.5842 -10.5078 -10.5076 -10.4992 -10.4991
   -10.2785 -10.2784 -10.2547 -10.2546 -10.1927 -10.1926 -10.1854 -10.1853
   -10.1509 -10.1508 -10.1187 -10.1186 -10.0441 -10.0440 -10.0193 -10.0192
    -9.7614  -9.7611  -9.7473  -9.7470  -9.6693  -9.6691  -9.6642  -9.6640
    -9.6551  -9.6549  -9.6521  -9.6519  -5.6894  -5.6894  -5.6820  -5.6820
    -5.6222  -5.6221  -5.6156  -5.6155  -5.5598  -5.5597  -5.5511  -5.5509
    -5.4732  -5.4731  -5.4676  -5.4675  -5.4466  -5.4465  -5.4273  -5.4273
    -5.4034  -5.4032  -5.3733  -5.3732  -5.3547  -5.3545  -5.3544  -5.3541
    -5.2793  -5.2792  -5.2789  -5.2788  -5.2606  -5.2605  -5.2604  -5.2603
    -5.2191  -5.2190  -5.2188  -5.2188  -5.1774  -5.1772  -5.1770  -5.1770
    -5.0891  -5.0889  -5.0888  -5.0888   0.6836   0.6837   0.6844   0.6845
     0.9247   0.9248   0.9273   0.9274   1.1578   1.1579   1.1604   1.1605
     1.1926   1.1927   1.1945   1.1947   1.2058   1.2060   1.2185   1.2187
     1.3952   1.3954   1.4034   1.4036   1.4431   1.4433   1.4537   1.4539
     1.7079   1.7080   1.7136   1.7137   1.7364   1.7365   1.7440   1.7441
     2.0290   2.0291   2.0352   2.0353   2.0589   2.0590   2.0688   2.0689
     2.1651   2.1651   2.1699   2.1700   2.2057   2.2058   2.2296   2.2297
     2.3308   2.3309   2.3699   2.3699   2.4635   2.4636   2.4756   2.4757
     2.5322   2.5322   2.5386   2.5386   2.6004   2.6005   2.6256   2.6257
     2.7297   2.7298   2.7446   2.7447   2.8844   2.8845   2.9015   2.9015
     2.9297   2.9297   2.9478   2.9479   3.1096   3.1097   3.1320   3.1320
     3.2244   3.2245   3.2274   3.2275   3.3684   3.3684   3.3768   3.3769
     3.3947   3.3949   3.4043   3.4046   3.5461   3.5463   3.5708   3.5710
     3.6425   3.6426   3.6679   3.6680   3.6805   3.6807   3.7425   3.7425
     3.7481   3.7482   3.7991   3.7991   3.8135   3.8136   3.8704   3.8705
     4.0189   4.0190   4.0252   4.0254   4.0491   4.0492   4.1083   4.1084
     4.1475   4.1476   4.1667   4.1667   4.2453   4.2453   4.2654   4.2654
     4.3138   4.3140   4.3686   4.3687   4.4188   4.4188   4.4515   4.4515
     4.4592   4.4593   4.4946   4.4947   4.5133   4.5133   4.5488   4.5489
     4.6257   4.6257   4.6484   4.6484   4.6666   4.6666   4.6703   4.6703
     4.7935   4.7936   4.8086   4.8086   4.8891   4.8892   4.9014   4.9016
     4.9315   4.9316   4.9458   4.9459   4.9848   4.9850   5.0103   5.0104
     5.0291   5.0292   5.0729   5.0730   5.1494   5.1494   5.1658   5.1658
     5.2076   5.2077   5.2271   5.2271   5.2640   5.2640   5.2673   5.2674
     5.2876   5.2877   5.2950   5.2951   5.3441   5.3443   5.3589   5.3590
     5.4556   5.4557   5.4776   5.4776   5.6311   5.6313   5.6462   5.6464

     highest occupied level (ev):     5.7036

!    total energy              =  -12669.69872576 Ry
     Harris-Foulkes estimate   =  -12669.69874995 Ry
     estimated scf accuracy    <       0.00003286 Ry

     total all-electron energy =   -212868.074228 Ry

     The total energy is the sum of the following terms:

     one-electron contribution =   -3371.02917031 Ry
     hartree contribution      =    2102.46801843 Ry
     xc contribution           =   -1379.90347466 Ry
     ewald contribution        =   -3483.06460529 Ry
     one-center paw contrib.   =   -6538.16949393 Ry

     convergence has been achieved in  12 iterations

     negative rho (up, down):  1.422E-06 0.000E+00

     Forces acting on atoms (cartesian axes, Ry/au):

     atom    1 type  1   force =    -0.03370455   -0.14485618   -0.03538271
     atom    2 type  1   force =    -0.03378385    0.14577500    0.03516928
     atom    3 type  1   force =    -0.03363088    0.14653333   -0.03423080
     atom    4 type  1   force =    -0.03374749   -0.14735972    0.03438154
     atom    5 type  1   force =    -0.03690219   -0.14808415   -0.00252539
     atom    6 type  1   force =    -0.03696898    0.14916073    0.00251238
     atom    7 type  1   force =    -0.03701706    0.14634742   -0.00474143
     atom    8 type  1   force =    -0.03708449   -0.14750240    0.00474381
     atom    9 type  1   force =     0.00453765   -0.02291342    0.06470232
     atom   10 type  1   force =     0.00444299    0.02404537   -0.06482316
     atom   11 type  1   force =     0.00463443    0.02441140    0.06500196
     atom   12 type  1   force =     0.00448918   -0.02552015   -0.06485506
     atom   13 type  1   force =     0.01034572    0.01614906    0.00639254
     atom   14 type  1   force =     0.01028273   -0.01808440   -0.00624811
     atom   15 type  1   force =     0.01036137   -0.01475869    0.00663141
     atom   16 type  1   force =     0.01031979    0.01677793   -0.00672710
     atom   17 type  1   force =    -0.13922794   -0.02930134   -0.04388517
     atom   18 type  1   force =    -0.13929575    0.02671724    0.04387303
     atom   19 type  1   force =    -0.13924013    0.02952459   -0.04201573
     atom   20 type  1   force =    -0.13923146   -0.02708300    0.04216899
     atom   21 type  1   force =     0.03065963   -0.08262223    0.02015667
     atom   22 type  1   force =     0.03059581    0.08338411   -0.02002345
     atom   23 type  1   force =     0.03076550    0.08437782    0.01813863
     atom   24 type  1   force =     0.03072496   -0.08517902   -0.01825342
     atom   25 type  2   force =     0.00142521    0.00105239   -0.00052048
     atom   26 type  2   force =     0.00140167   -0.00079768    0.00045050
     atom   27 type  2   force =     0.00142917   -0.00102638   -0.00053934
     atom   28 type  2   force =     0.00138073    0.00082720    0.00052051
     atom   29 type  2   force =     0.00038359    0.00675803    0.00112649
     atom   30 type  2   force =     0.00037311   -0.00694240   -0.00114274
     atom   31 type  2   force =     0.00036630   -0.00671877    0.00127180
     atom   32 type  2   force =     0.00036241    0.00686585   -0.00124503
     atom   33 type  2   force =     0.00679956   -0.00223446   -0.00227550
     atom   34 type  2   force =     0.00683157    0.00227369    0.00230826
     atom   35 type  2   force =     0.00674703    0.00218586   -0.00221480
     atom   36 type  2   force =     0.00678360   -0.00218654    0.00224295
     atom   37 type  2   force =     0.01299435   -0.00609323   -0.00005209
     atom   38 type  2   force =     0.01315614    0.00566944   -0.00001759
     atom   39 type  2   force =     0.01304355    0.00597122   -0.00014506
     atom   40 type  2   force =     0.01311721   -0.00551431    0.00021892
     atom   41 type  3   force =     0.01453397    0.14246221    0.05109930
     atom   42 type  3   force =     0.01458261   -0.14294928   -0.05133516
     atom   43 type  3   force =     0.01477586   -0.14265588    0.05089350
     atom   44 type  3   force =     0.01467414    0.14297811   -0.05103632
     atom   45 type  3   force =     0.00189461   -0.07644581    0.01020758
     atom   46 type  3   force =     0.00189835    0.07662792   -0.01016296
     atom   47 type  3   force =     0.00181019    0.07605404    0.01006650
     atom   48 type  3   force =     0.00186346   -0.07655439   -0.01011328
     atom   49 type  3   force =    -0.02080086    0.04387548   -0.03414886
     atom   50 type  3   force =    -0.02078618   -0.04320239    0.03426921
     atom   51 type  3   force =    -0.02080053   -0.04358183   -0.03437739
     atom   52 type  3   force =    -0.02077896    0.04286669    0.03445597
     atom   53 type  3   force =    -0.02139286   -0.01322201   -0.00675991
     atom   54 type  3   force =    -0.02134161    0.01336856    0.00669579
     atom   55 type  3   force =    -0.02137915    0.01371766   -0.00666039
     atom   56 type  3   force =    -0.02137378   -0.01410962    0.00673341
     atom   57 type  3   force =     0.00454889   -0.01041185    0.00131909
     atom   58 type  3   force =     0.00459657    0.00995757   -0.00124353
     atom   59 type  3   force =     0.00447719    0.01017318    0.00201813
     atom   60 type  3   force =     0.00466209   -0.00941551   -0.00187614
     atom   61 type  3   force =    -0.07200734    0.02284705   -0.03101899
     atom   62 type  3   force =    -0.07210774   -0.02311289    0.03062845
     atom   63 type  3   force =    -0.07190243   -0.02331110   -0.03063926
     atom   64 type  3   force =    -0.07191188    0.02370549    0.03092465
     atom   65 type  3   force =    -0.00762267    0.01942913   -0.03580419
     atom   66 type  3   force =    -0.00747721   -0.01986133    0.03568196
     atom   67 type  3   force =    -0.00757999   -0.01975050   -0.03613172
     atom   68 type  3   force =    -0.00747662    0.02013109    0.03608566
     atom   69 type  3   force =    -0.00247651   -0.11758645   -0.00040721
     atom   70 type  3   force =    -0.00246737    0.11682011    0.00044325
     atom   71 type  3   force =    -0.00270387    0.11773535   -0.00007737
     atom   72 type  3   force =    -0.00277726   -0.11691380    0.00009366
     atom   73 type  3   force =    -0.01927533   -0.03259115   -0.02338254
     atom   74 type  3   force =    -0.01943164    0.03319322    0.02335539
     atom   75 type  3   force =    -0.01952073    0.03320576   -0.02354352
     atom   76 type  3   force =    -0.01955336   -0.03351622    0.02357723
     atom   77 type  3   force =     0.10608272    0.07806150    0.01367901
     atom   78 type  3   force =     0.10584848   -0.07938052   -0.01366036
     atom   79 type  3   force =     0.10609748   -0.07817404    0.01395115
     atom   80 type  3   force =     0.10600121    0.07916250   -0.01399231
     atom   81 type  3   force =     0.00418714   -0.00296620   -0.02506058
     atom   82 type  3   force =     0.00412407    0.00382668    0.02489981
     atom   83 type  3   force =     0.00415887    0.00218826   -0.02516445
     atom   84 type  3   force =     0.00406353   -0.00290348    0.02528780
     atom   85 type  3   force =    -0.00284237    0.02683703    0.01004889
     atom   86 type  3   force =    -0.00306943   -0.02616992   -0.01033786
     atom   87 type  3   force =    -0.00281040   -0.02789358    0.01082758
     atom   88 type  3   force =    -0.00302586    0.02738344   -0.01069458
     atom   89 type  3   force =     0.01898208    0.04825415   -0.00160316
     atom   90 type  3   force =     0.01876409   -0.04736219    0.00164949
     atom   91 type  3   force =     0.01924201   -0.04880391   -0.00147696
     atom   92 type  3   force =     0.01906909    0.04786728    0.00194292
     atom   93 type  3   force =     0.00154733   -0.00213242   -0.00362316
     atom   94 type  3   force =     0.00151361    0.00220709    0.00360474
     atom   95 type  3   force =     0.00147908    0.00247482   -0.00345469
     atom   96 type  3   force =     0.00140160   -0.00213278    0.00344648
     atom   97 type  3   force =     0.13864834    0.00041956   -0.00863882
     atom   98 type  3   force =     0.13869323   -0.00024393    0.00857438
     atom   99 type  3   force =     0.13881921   -0.00123496   -0.00836959
     atom  100 type  3   force =     0.13879501    0.00086094    0.00831880
     atom  101 type  3   force =    -0.00933234    0.05987534   -0.00243271
     atom  102 type  3   force =    -0.00906787   -0.05999250    0.00236215
     atom  103 type  3   force =    -0.00890836   -0.06009342   -0.00234917
     atom  104 type  3   force =    -0.00884904    0.06004914    0.00220151
     atom  105 type  3   force =     0.00822542   -0.03970575    0.07920323
     atom  106 type  3   force =     0.00804267    0.04008007   -0.07916234
     atom  107 type  3   force =     0.00794551    0.04034812    0.07929763
     atom  108 type  3   force =     0.00788161   -0.04069209   -0.07925265

     Total force =     0.879298     Total SCF correction =     0.016967

     BFGS Geometry Optimization

     number of scf cycles    =   1
     number of bfgs steps    =   0

     energy   new            =  -12669.6987257613 Ry

     new trust radius        =       0.1550350656 bohr
     new conv_thr            =       0.0001000000 Ry


ATOMIC_POSITIONS (angstrom)
Nb            1.9884273194       14.2155244098        3.0085282774
Nb            5.9033853567        2.8035988084        0.4397567800
Nb            5.9034663043       19.4090050966        6.2391378422
Nb            1.9884045978       30.8191945931        3.6693399291
Nb            2.0483572008        2.6497562416        0.3933306237
Nb            5.9633218575       14.3694514579        3.0550614965
Nb            5.9632964173       30.9729577166        3.6221579431
Nb            2.0482607314       19.2550690902        6.2862423147
Nb            1.9999652185       12.6557537408        0.1809709915
Nb            5.9149151293        4.3634832604        3.2673640597
Nb            5.9150164346       20.9686819558        3.4111295534
Nb            1.9999395705       29.2593693170        0.0373471795
Nb            2.1269177199        4.2942127125        3.2296027840
Nb            6.0418843866       12.7234001453        0.2188716440
Nb            6.0419260024       29.3301550369        6.4597291933
Nb            2.1269039969       20.8995504982        3.4486181720
Nb            3.9817837472       11.6623833999        2.5857379663
Nb            0.0667478660        5.3548871544        0.8626546072
Nb            0.0667772990       21.9613777382        5.8167272313
Nb            3.9817818853       28.2685522913        4.0917528700
Nb            4.0693353753       10.1231122014        6.1293454494
Nb            0.1543016041        6.8959279700        3.7791240466
Nb            0.1543914030       23.5014588181        2.8982775488
Nb            4.0693699473       26.7267542016        0.5500607050
K             3.9521301905       15.8466319033        5.9301135740
K             0.0371177298        1.1721408859        3.9782473920
K             0.0371322850       17.7770248623        2.7001035914
K             3.9521066512       32.4515077365        0.7482844413
K             0.0562329866       15.7437111950        5.8935371143
K             3.9712274393        1.2748292391        4.0148532886
K             3.9712238359       17.8799525785        2.6636140054
K             0.0562217785       32.3487632521        0.7847991567
K             0.0517821742       11.2290355725        3.8800928552
K             3.9667991130        5.7896221861        6.0283234792
K             3.9667543767       22.3945807096        0.6501249793
K             0.0517737278       27.8340559342        2.7982889159
K             0.0887923152        9.2177896015        0.3986894347
K             4.0038779309        7.8006241380        3.0496716910
K             4.0038183517       24.4057888316        3.6286402395
K             0.0888573308       25.8230909525        6.2797968448
O             2.3521240464       15.9546727559        3.5491335850
O             6.2671497870        1.0637075013        6.3591406049
O             6.2672520501       17.6688677614        0.3190246778
O             2.3521982178       32.5599407557        3.1292987421
O             5.8147835822       16.0379256211        3.5299256174
O             1.8997855650        0.9808087514        6.3784969915
O             1.8997389129       17.5855100672        0.2998509624
O             5.8147670980       32.6428631614        3.1485232835
O             2.0980956600       13.3337099015        4.9209471992
O             6.0131034291        3.6852842783        4.9875144861
O             6.0130958321       20.2900884884        1.6908262672
O             2.0981072475       29.9381710729        1.7576133142
O             6.0582433880       13.6063702131        5.0556548098
O             2.1432705085        3.4123443365        4.8527092618
O             2.1432506410       20.0175340743        1.8257074733
O             6.0582534839       30.2108955106        1.6227291646
O             2.1874451671       10.7650822885        6.0605200314
O             6.1024703980        6.2533153188        3.8479189532
O             6.1024072282       22.8584344124        2.8308899475
O             2.1875050713       27.3706045248        0.6175841885
O             5.9949163563       10.7902211408        6.2949594579
O             2.0798632273        6.2282761834        3.6132318767
O             2.0799718710       22.8331762968        3.0651604014
O             5.9949668745       27.3956704063        0.3833886205
O             2.0440492578       14.4436034505        1.0906222388
O             5.9591262320        2.5748058390        2.3577120820
O             5.9590718419       19.1798694863        4.3204489195
O             2.0441265421       31.0489699117        5.5879257066
O             5.9918474884       14.7641379309        1.1794735135
O             2.0768523239        2.2540945384        2.2689435576
O             2.0767271751       18.8595838629        4.4096480572
O             5.9916883364       31.3694888801        5.4987585647
O             2.1443239363       12.1445125046        2.3051964950
O             6.0592412175        4.8744440932        1.1431881422
O             6.0591940722       21.4794557298        5.5351113047
O             2.1441768065       28.7490179785        4.3733055340
O             5.8879265601       11.9584753649        2.2029336218
O             1.9728026009        5.0594646378        1.2454742511
O             1.9729343673       21.6651080819        5.4330776330
O             5.8878834241       28.5640529920        4.4752985861
O             4.0439497378       12.5251663525        0.4915545120
O             0.1289163653        4.4939259909        2.9567584097
O             0.1289347796       21.0980639761        3.7214995471
O             4.0438843263       29.1301945451        6.1869637299
O             0.1003078852       12.4061055444        0.3177676451
O             4.0151877264        4.6128854726        3.1304774414
O             4.0153248022       21.2169783532        3.5481797078
O             0.1002107823       29.0113896919        6.3602886709
O             3.8600228856        9.9499699971        1.6139506422
O             7.7749075308        7.0691400111        1.8344718734
O             7.7751604321       23.6733820829        4.8440174281
O             3.8600689295       26.5547602756        5.0646271510
O             0.0496628127       14.0771785707        3.2258857084
O             3.9646449672        2.9414989404        0.2225035484
O             3.9646266978       19.5466456206        6.4559748561
O             0.0495856958       30.6821733809        3.4524197989
O             3.9557005422       13.6962820215        3.1605045340
O             7.8707242947        3.3224489160        0.2878593671
O             7.8707909639       19.9269294897        6.3906470046
O             3.9557781551       30.3015105924        3.5177241176
O             4.1613245381        8.4114796660        5.7621176666
O             0.2464644903        8.6070963355        4.1462439975
O             0.2465488978       25.2120379306        2.5321618710
O             4.1615802917       25.0165766389        0.9161589908
O             4.1897047068       10.9382136196        4.2689745426
O             0.2746079992        6.0806224622        5.6394460954
O             0.2745565815       22.6857693052        1.0390244988
O             4.1895227681       27.5426866758        2.4093983056



     Writing output data file ./outdir/knbo.save/
     NEW-OLD atomic charge density approx. for the potential

     Check: negative core charge=   -0.000189

     negative rho (up, down):  4.395E-07 0.000E+00

     total cpu time spent up to now is     2001.9 secs

     Self-consistent Calculation

     iteration #  1     ecut=    30.00 Ry     beta= 0.40
     Davidson diagonalization with overlap
     ethr =  1.00E-06,  avg # of iterations =  8.0

     negative rho (up, down):  6.345E-07 0.000E+00

     total cpu time spent up to now is     2560.9 secs

     total energy              =  -12669.91334226 Ry
     Harris-Foulkes estimate   =  -12670.44380608 Ry
     estimated scf accuracy    <       0.41170592 Ry

     iteration #  2     ecut=    30.00 Ry     beta= 0.40
     Davidson diagonalization with overlap
     ethr =  4.77E-05,  avg # of iterations =  4.0

     negative rho (up, down):  4.969E-07 0.000E+00

     total cpu time spent up to now is     2776.2 secs

     total energy              =  -12669.96588302 Ry
     Harris-Foulkes estimate   =  -12670.11995073 Ry
     estimated scf accuracy    <       0.49231810 Ry

     iteration #  3     ecut=    30.00 Ry     beta= 0.40
     Davidson diagonalization with overlap
     ethr =  4.77E-05,  avg # of iterations =  3.5

     negative rho (up, down):  3.912E-07 0.000E+00

     total cpu time spent up to now is     2943.3 secs

     total energy              =  -12670.03029866 Ry
     Harris-Foulkes estimate   =  -12670.04531086 Ry
     estimated scf accuracy    <       0.03050043 Ry

     iteration #  4     ecut=    30.00 Ry     beta= 0.40
     Davidson diagonalization with overlap
     ethr =  3.53E-06,  avg # of iterations =  4.0

     negative rho (up, down):  2.957E-07 0.000E+00

     total cpu time spent up to now is     3139.7 secs

     total energy              =  -12670.03257363 Ry
     Harris-Foulkes estimate   =  -12670.03962436 Ry
     estimated scf accuracy    <       0.01911329 Ry

     iteration #  5     ecut=    30.00 Ry     beta= 0.40
     Davidson diagonalization with overlap
     ethr =  2.21E-06,  avg # of iterations =  3.0

     negative rho (up, down):  2.530E-07 0.000E+00

     total cpu time spent up to now is     3286.2 secs

     total energy              =  -12670.03444175 Ry
     Harris-Foulkes estimate   =  -12670.03520785 Ry
     estimated scf accuracy    <       0.00171332 Ry

     iteration #  6     ecut=    30.00 Ry     beta= 0.40
     Davidson diagonalization with overlap
     ethr =  1.98E-07,  avg # of iterations =  4.0

     negative rho (up, down):  2.315E-07 0.000E+00

     total cpu time spent up to now is     3474.8 secs

     total energy              =  -12670.03464690 Ry
     Harris-Foulkes estimate   =  -12670.03480380 Ry
     estimated scf accuracy    <       0.00037587 Ry

     iteration #  7     ecut=    30.00 Ry     beta= 0.40
     Davidson diagonalization with overlap
     ethr =  4.35E-08,  avg # of iterations =  3.0

     negative rho (up, down):  2.383E-07 0.000E+00

     total cpu time spent up to now is     3637.0 secs

     End of self-consistent calculation

          k = 0.0000 0.0000 0.0000 ( 31457 PWs)   bands (ev):

   -48.9806 -48.9762 -48.9754 -48.9709 -48.9347 -48.9313 -48.9311 -48.9271
   -48.8030 -48.7990 -48.7954 -48.7918 -48.5597 -48.5586 -48.5510 -48.5494
   -48.5493 -48.5480 -48.5461 -48.5439 -48.4636 -48.4588 -48.4569 -48.4517
   -25.3616 -25.3582 -25.3567 -25.3530 -25.2685 -25.2645 -25.2641 -25.2597
   -25.2270 -25.2220 -25.2205 -25.2151 -25.1681 -25.1653 -25.1620 -25.1589
   -25.1245 -25.1212 -25.1202 -25.1165 -25.1081 -25.1048 -25.1042 -25.1005
   -25.0774 -25.0753 -25.0704 -25.0683 -25.0482 -25.0445 -25.0419 -25.0382
   -24.9926 -24.9884 -24.9863 -24.9829 -24.9817 -24.9799 -24.9732 -24.9704
   -24.9307 -24.9264 -24.9255 -24.9212 -24.7762 -24.7724 -24.7717 -24.7674
   -24.7250 -24.7224 -24.7218 -24.7182 -24.7178 -24.7150 -24.7135 -24.7114
   -24.6857 -24.6824 -24.6812 -24.6782 -24.6461 -24.6456 -24.6378 -24.6374
   -24.6063 -24.6022 -24.6002 -24.5956 -24.5771 -24.5724 -24.5706 -24.5654
   -21.9926 -21.9908 -21.9818 -21.9798 -21.9400 -21.9376 -21.9361 -21.9335
   -21.8775 -21.8745 -21.8678 -21.8649 -21.7406 -21.7387 -21.7366 -21.7344
   -11.8752 -11.8717 -11.8705 -11.8668 -11.4407 -11.4363 -11.4352 -11.4306
   -11.1472 -11.1414 -11.1407 -11.1348 -10.9868 -10.9853 -10.9778 -10.9764
   -10.9549 -10.9505 -10.9492 -10.9446 -10.8802 -10.8738 -10.8737 -10.8674
   -10.5869 -10.5829 -10.5737 -10.5699 -10.5308 -10.5251 -10.5098 -10.5042
   -10.4232 -10.4200 -10.4150 -10.4120 -10.3616 -10.3597 -10.3548 -10.3527
   -10.2406 -10.2357 -10.2278 -10.2227 -10.1664 -10.1613 -10.1603 -10.1576
   -10.1544 -10.1529 -10.1517 -10.1469 -10.0099 -10.0003  -9.9963  -9.9883
    -9.9821  -9.9783  -9.9591  -9.9546  -9.8494  -9.8435  -9.8427  -9.8365
    -9.3811  -9.3791  -9.3580  -9.3560  -5.5879  -5.5858  -5.5771  -5.5748
    -5.5046  -5.5009  -5.4995  -5.4929  -5.4891  -5.4826  -5.4818  -5.4783
    -5.4749  -5.4650  -5.4648  -5.4578  -5.4569  -5.4543  -5.4538  -5.4528
    -5.4218  -5.4177  -5.4043  -5.4014  -5.3943  -5.3913  -5.3736  -5.3706
    -5.3688  -5.3650  -5.3627  -5.3597  -5.3028  -5.2996  -5.2929  -5.2897
    -5.2721  -5.2680  -5.2568  -5.2526  -5.2391  -5.2350  -5.2072  -5.2030
    -5.1854  -5.1814  -5.1539  -5.1498   0.4393   0.4423   0.4439   0.4475
     0.8418   0.8468   0.8487   0.8541   1.0093   1.0154   1.0171   1.0234
     1.1714   1.1770   1.1935   1.1996   1.3292   1.3445   1.3474   1.3552
     1.3620   1.3668   1.3671   1.3733   1.5325   1.5439   1.5448   1.5585
     1.6925   1.7002   1.7051   1.7138   1.9121   1.9184   1.9358   1.9464
     1.9753   1.9881   2.0063   2.0172   2.1175   2.1230   2.1379   2.1441
     2.1791   2.1846   2.2132   2.2188   2.3260   2.3357   2.3465   2.3561
     2.3681   2.3894   2.4052   2.4341   2.4847   2.4943   2.5045   2.5145
     2.6228   2.6295   2.6370   2.6395   2.6516   2.6634   2.6748   2.7103
     2.7562   2.7705   2.7909   2.8062   2.9279   2.9414   2.9435   2.9621
     2.9978   3.0004   3.0035   3.0154   3.1677   3.1743   3.1844   3.1917
     3.2052   3.2153   3.2367   3.2432   3.2727   3.3062   3.3153   3.3301
     3.3640   3.3702   3.3798   3.3829   3.4852   3.4947   3.5018   3.5083
     3.5343   3.5570   3.5806   3.6006   3.6134   3.6167   3.6412   3.6517
     3.7072   3.7349   3.7631   3.7793   3.9682   3.9734   3.9765   4.0079
     4.0289   4.0570   4.0618   4.0714   4.1183   4.1193   4.1291   4.1312
     4.1747   4.2227   4.2247   4.2278   4.2699   4.2901   4.2963   4.3142
     4.3199   4.3217   4.3230   4.3307   4.3788   4.4140   4.4179   4.4400
     4.4680   4.4734   4.4883   4.5184   4.5381   4.5553   4.5639   4.5754
     4.5886   4.6020   4.6186   4.6335   4.6352   4.6487   4.6891   4.7018
     4.7781   4.7805   4.7925   4.8045   4.8206   4.8341   4.8477   4.8643
     4.8760   4.8950   4.8958   4.9036   4.9321   4.9452   4.9560   4.9757
     5.0021   5.0236   5.0309   5.0489   5.1034   5.1072   5.1269   5.1715
     5.1865   5.2007   5.2211   5.2438   5.2583   5.2593   5.2617   5.2739
     5.2792   5.2968   5.3127   5.3154   5.4194   5.4317   5.4327   5.4439
     5.4670   5.4704   5.4712   5.4766   5.5873   5.5924   5.5950   5.5995

          k = 0.0000 0.0000-0.6060 ( 31394 PWs)   bands (ev):

   -48.9805 -48.9761 -48.9753 -48.9708 -48.9346 -48.9312 -48.9310 -48.9270
   -48.8029 -48.7989 -48.7953 -48.7916 -48.5597 -48.5586 -48.5510 -48.5494
   -48.5494 -48.5481 -48.5461 -48.5439 -48.4636 -48.4588 -48.4569 -48.4517
   -25.3622 -25.3587 -25.3573 -25.3535 -25.2618 -25.2575 -25.2570 -25.2524
   -25.2207 -25.2158 -25.2144 -25.2091 -25.1709 -25.1680 -25.1649 -25.1618
   -25.1216 -25.1181 -25.1175 -25.1145 -25.1136 -25.1111 -25.1104 -25.1068
   -25.0548 -25.0520 -25.0496 -25.0478 -25.0466 -25.0449 -25.0434 -25.0406
   -24.9903 -24.9865 -24.9833 -24.9791 -24.9764 -24.9732 -24.9671 -24.9640
   -24.9329 -24.9286 -24.9277 -24.9236 -24.7882 -24.7852 -24.7827 -24.7794
   -24.7390 -24.7370 -24.7352 -24.7329 -24.7257 -24.7235 -24.7204 -24.7184
   -24.6824 -24.6788 -24.6786 -24.6751 -24.6476 -24.6474 -24.6394 -24.6394
   -24.6094 -24.6051 -24.6036 -24.5989 -24.5783 -24.5736 -24.5718 -24.5665
   -21.9914 -21.9899 -21.9806 -21.9789 -21.9386 -21.9378 -21.9348 -21.9337
   -21.8783 -21.8753 -21.8686 -21.8657 -21.7408 -21.7393 -21.7369 -21.7349
   -11.7982 -11.7957 -11.7943 -11.7916 -11.3525 -11.3472 -11.3463 -11.3409
   -11.2159 -11.2095 -11.2094 -11.2029 -11.0024 -10.9935 -10.9882 -10.9792
   -10.9104 -10.9081 -10.9036 -10.9015 -10.7644 -10.7583 -10.7560 -10.7495
   -10.6585 -10.6542 -10.6391 -10.6345 -10.6022 -10.5976 -10.5972 -10.5924
   -10.4527 -10.4482 -10.4467 -10.4419 -10.4061 -10.3972 -10.3940 -10.3853
   -10.2740 -10.2689 -10.2687 -10.2636 -10.1773 -10.1720 -10.1666 -10.1616
   -10.1554 -10.1508 -10.1481 -10.1435 -10.0110  -9.9968  -9.9956  -9.9823
    -9.9512  -9.9492  -9.9463  -9.9442  -9.9021  -9.8989  -9.8969  -9.8935
    -9.3686  -9.3685  -9.3667  -9.3666  -5.5450  -5.5432  -5.5337  -5.5317
    -5.5085  -5.5054  -5.5031  -5.5009  -5.4994  -5.4970  -5.4964  -5.4937
    -5.4854  -5.4746  -5.4735  -5.4626  -5.4396  -5.4390  -5.4357  -5.4349
    -5.4160  -5.4127  -5.4062  -5.4029  -5.3919  -5.3906  -5.3880  -5.3864
    -5.3682  -5.3652  -5.3592  -5.3562  -5.2973  -5.2944  -5.2879  -5.2848
    -5.2782  -5.2768  -5.2742  -5.2725  -5.2196  -5.2178  -5.2156  -5.2134
    -5.1696  -5.1682  -5.1657  -5.1639   0.4465   0.4496   0.4501   0.4532
     0.9119   0.9202   0.9223   0.9304   1.0321   1.0391   1.0405   1.0478
     1.1817   1.1857   1.2047   1.2086   1.2345   1.2401   1.2405   1.2464
     1.3992   1.4040   1.4047   1.4095   1.5905   1.5965   1.6097   1.6152
     1.6803   1.6864   1.6957   1.7022   1.7460   1.7516   1.7751   1.7807
     1.8323   1.8376   1.8489   1.8549   2.0130   2.0184   2.0234   2.0291
     2.0720   2.0783   2.0858   2.0917   2.2674   2.2750   2.2981   2.3053
     2.3243   2.3284   2.3365   2.3401   2.5984   2.6062   2.6099   2.6177
     2.6493   2.6520   2.6573   2.6595   2.7037   2.7060   2.7138   2.7172
     2.7840   2.7935   2.8559   2.8651   2.9360   2.9383   2.9435   2.9457
     3.1091   3.1149   3.1156   3.1218   3.1528   3.1569   3.1795   3.1832
     3.2684   3.2708   3.2759   3.2784   3.4506   3.4549   3.4771   3.4808
     3.5855   3.5890   3.5908   3.5944   3.6737   3.6787   3.7112   3.7164
     3.7180   3.7200   3.7216   3.7275   3.7334   3.7375   3.7707   3.7743
     3.8768   3.8860   3.9134   3.9237   3.9642   3.9688   3.9709   3.9757
     4.0771   4.0808   4.0941   4.0976   4.1252   4.1303   4.1339   4.1375
     4.1813   4.1861   4.2214   4.2260   4.2919   4.2925   4.3075   4.3083
     4.3423   4.3461   4.3596   4.3632   4.4248   4.4289   4.4322   4.4377
     4.4606   4.4623   4.4672   4.4689   4.4874   4.4944   4.5224   4.5299
     4.5899   4.5922   4.5930   4.5950   4.6369   4.6374   4.6420   4.6426
     4.6780   4.6824   4.6842   4.6885   4.7300   4.7358   4.7369   4.7430
     4.8437   4.8486   4.8566   4.8612   4.9258   4.9289   4.9578   4.9611
     4.9861   4.9883   5.0017   5.0043   5.0309   5.0345   5.0427   5.0478
     5.1793   5.1804   5.1823   5.1834   5.2329   5.2343   5.2385   5.2401
     5.3493   5.3512   5.3544   5.3568   5.4207   5.4222   5.4267   5.4286
     5.4756   5.4805   5.4806   5.4854   5.5701   5.5733   5.5760   5.5796

          k =-0.5000 0.0000 0.0000 ( 31506 PWs)   bands (ev):

   -48.9805 -48.9762 -48.9753 -48.9708 -48.9348 -48.9314 -48.9313 -48.9272
   -48.8030 -48.7990 -48.7954 -48.7918 -48.5597 -48.5586 -48.5510 -48.5494
   -48.5494 -48.5480 -48.5461 -48.5439 -48.4636 -48.4589 -48.4570 -48.4517
   -25.3095 -25.3062 -25.3040 -25.3004 -25.2805 -25.2764 -25.2760 -25.2716
   -25.2323 -25.2279 -25.2268 -25.2221 -25.1935 -25.1897 -25.1876 -25.1834
   -25.1371 -25.1337 -25.1326 -25.1287 -25.1152 -25.1122 -25.1108 -25.1077
   -25.0713 -25.0693 -25.0642 -25.0624 -25.0460 -25.0422 -25.0397 -25.0360
   -24.9916 -24.9869 -24.9858 -24.9833 -24.9810 -24.9808 -24.9734 -24.9707
   -24.9240 -24.9200 -24.9183 -24.9144 -24.7575 -24.7537 -24.7535 -24.7491
   -24.7281 -24.7263 -24.7229 -24.7206 -24.7174 -24.7145 -24.7140 -24.7114
   -24.6882 -24.6845 -24.6843 -24.6808 -24.6465 -24.6460 -24.6382 -24.6378
   -24.6164 -24.6116 -24.6102 -24.6051 -24.5897 -24.5851 -24.5833 -24.5783
   -21.9923 -21.9908 -21.9815 -21.9798 -21.9389 -21.9381 -21.9350 -21.9340
   -21.8774 -21.8744 -21.8677 -21.8648 -21.7407 -21.7392 -21.7368 -21.7348
   -11.6813 -11.6775 -11.6766 -11.6727 -11.3040 -11.3008 -11.2995 -11.2960
   -11.0750 -11.0703 -11.0699 -11.0650 -11.0229 -11.0213 -11.0173 -11.0161
   -10.9104 -10.9073 -10.9072 -10.9042 -10.8734 -10.8690 -10.8671 -10.8624
   -10.7658 -10.7609 -10.7574 -10.7522 -10.5588 -10.5566 -10.5553 -10.5528
   -10.4850 -10.4804 -10.4780 -10.4731 -10.4040 -10.4023 -10.3982 -10.3962
   -10.3398 -10.3394 -10.3312 -10.3308 -10.2352 -10.2304 -10.2294 -10.2245
   -10.1573 -10.1549 -10.1524 -10.1498 -10.0124 -10.0115  -9.9986  -9.9971
    -9.9712  -9.9691  -9.9667  -9.9644  -9.8510  -9.8474  -9.8451  -9.8411
    -9.3701  -9.3699  -9.3681  -9.3680  -5.5869  -5.5852  -5.5761  -5.5742
    -5.4948  -5.4932  -5.4891  -5.4882  -5.4852  -5.4842  -5.4837  -5.4818
    -5.4694  -5.4681  -5.4619  -5.4615  -5.4588  -5.4582  -5.4576  -5.4567
    -5.4053  -5.4026  -5.3955  -5.3928  -5.3740  -5.3715  -5.3712  -5.3709
    -5.3677  -5.3671  -5.3636  -5.3607  -5.3008  -5.2981  -5.2909  -5.2882
    -5.2665  -5.2655  -5.2625  -5.2612  -5.2285  -5.2267  -5.2244  -5.2223
    -5.1894  -5.1880  -5.1856  -5.1838   0.7232   0.7266   0.7295   0.7333
     1.0164   1.0195   1.0208   1.0244   1.1107   1.1158   1.1164   1.1216
     1.2539   1.2571   1.2578   1.2612   1.3425   1.3474   1.3480   1.3529
     1.5118   1.5160   1.5190   1.5233   1.5647   1.5694   1.5702   1.5753
     1.6983   1.7007   1.7060   1.7084   1.9146   1.9174   1.9201   1.9229
     1.9266   1.9286   1.9330   1.9350   2.0630   2.0673   2.0676   2.0720
     2.1725   2.1745   2.1786   2.1806   2.3025   2.3046   2.3061   2.3081
     2.3547   2.3566   2.3605   2.3624   2.4469   2.4488   2.4538   2.4555
     2.5754   2.5791   2.5797   2.5835   2.7670   2.7683   2.7822   2.7836
     2.8562   2.8563   2.8930   2.8930   2.9099   2.9102   2.9329   2.9330
     2.9932   2.9957   2.9993   3.0019   3.0993   3.1003   3.1136   3.1146
     3.1958   3.1973   3.2001   3.2017   3.2781   3.2802   3.2842   3.2860
     3.3490   3.3490   3.3815   3.3819   3.3933   3.3943   3.4081   3.4093
     3.5023   3.5026   3.5109   3.5113   3.6483   3.6488   3.6644   3.6648
     3.6722   3.6731   3.6807   3.6819   3.8323   3.8357   3.8383   3.8417
     3.8668   3.8688   3.8776   3.8798   3.9586   3.9608   3.9676   3.9700
     4.2090   4.2102   4.2230   4.2241   4.2606   4.2616   4.2722   4.2735
     4.2859   4.2878   4.2929   4.2951   4.4237   4.4255   4.4311   4.4331
     4.5581   4.5601   4.5636   4.5657   4.6171   4.6194   4.6205   4.6228
     4.6449   4.6480   4.6534   4.6571   4.7267   4.7271   4.7485   4.7489
     4.7680   4.7686   4.7838   4.7846   4.8653   4.8688   4.8702   4.8738
     4.9591   4.9603   4.9677   4.9688   5.0187   5.0197   5.0294   5.0305
     5.0585   5.0596   5.0661   5.0670   5.1554   5.1556   5.1650   5.1653
     5.2048   5.2051   5.2097   5.2098   5.2389   5.2405   5.2477   5.2492
     5.2835   5.2846   5.2881   5.2893   5.3789   5.3805   5.3826   5.3844
     5.4824   5.4839   5.4855   5.4869   5.5241   5.5258   5.5281   5.5300

          k =-0.5000 0.0000-0.6060 ( 31516 PWs)   bands (ev):

   -48.9805 -48.9761 -48.9753 -48.9708 -48.9348 -48.9314 -48.9312 -48.9271
   -48.8030 -48.7990 -48.7953 -48.7917 -48.5598 -48.5587 -48.5511 -48.5495
   -48.5495 -48.5481 -48.5461 -48.5440 -48.4637 -48.4589 -48.4570 -48.4518
   -25.3077 -25.3043 -25.3021 -25.2985 -25.2764 -25.2723 -25.2717 -25.2673
   -25.2307 -25.2263 -25.2252 -25.2204 -25.1877 -25.1840 -25.1818 -25.1777
   -25.1453 -25.1417 -25.1411 -25.1371 -25.1166 -25.1136 -25.1124 -25.1092
   -25.0478 -25.0446 -25.0435 -25.0414 -25.0411 -25.0382 -25.0370 -25.0346
   -24.9898 -24.9857 -24.9832 -24.9787 -24.9785 -24.9755 -24.9690 -24.9660
   -24.9280 -24.9240 -24.9223 -24.9186 -24.7670 -24.7645 -24.7617 -24.7586
   -24.7419 -24.7386 -24.7386 -24.7352 -24.7277 -24.7243 -24.7237 -24.7207
   -24.6849 -24.6818 -24.6810 -24.6778 -24.6480 -24.6478 -24.6398 -24.6398
   -24.6175 -24.6126 -24.6116 -24.6064 -24.5924 -24.5876 -24.5861 -24.5809
   -21.9913 -21.9898 -21.9805 -21.9788 -21.9384 -21.9375 -21.9345 -21.9334
   -21.8783 -21.8753 -21.8686 -21.8656 -21.7411 -21.7396 -21.7372 -21.7352
   -11.5384 -11.5350 -11.5339 -11.5303 -11.2376 -11.2342 -11.2324 -11.2288
   -11.1113 -11.1099 -11.1044 -11.1033 -11.0267 -11.0230 -11.0220 -11.0181
   -10.9135 -10.9102 -10.9095 -10.9064 -10.8757 -10.8729 -10.8688 -10.8656
   -10.7671 -10.7605 -10.7589 -10.7519 -10.6086 -10.6056 -10.6041 -10.6009
   -10.5426 -10.5402 -10.5387 -10.5360 -10.4276 -10.4251 -10.4188 -10.4157
   -10.3832 -10.3819 -10.3749 -10.3738 -10.2258 -10.2211 -10.2144 -10.2097
   -10.1731 -10.1704 -10.1645 -10.1618 -10.0109 -10.0100  -9.9970  -9.9957
    -9.9493  -9.9451  -9.9439  -9.9395  -9.9078  -9.9026  -9.9004  -9.8951
    -9.3698  -9.3696  -9.3679  -9.3676  -5.5450  -5.5437  -5.5338  -5.5322
    -5.5040  -5.5019  -5.4972  -5.4954  -5.4934  -5.4928  -5.4919  -5.4898
    -5.4797  -5.4784  -5.4690  -5.4675  -5.4515  -5.4475  -5.4302  -5.4261
    -5.4164  -5.4139  -5.4067  -5.4040  -5.3772  -5.3732  -5.3714  -5.3684
    -5.3649  -5.3615  -5.3609  -5.3585  -5.2954  -5.2927  -5.2860  -5.2832
    -5.2790  -5.2771  -5.2750  -5.2729  -5.2378  -5.2335  -5.2157  -5.2116
    -5.1955  -5.1913  -5.1752  -5.1712   0.7897   0.7909   0.7967   0.7982
     0.9744   0.9779   0.9796   0.9836   1.1650   1.1694   1.1715   1.1761
     1.2021   1.2049   1.2082   1.2109   1.2796   1.2843   1.2875   1.2922
     1.4888   1.4935   1.4964   1.5012   1.5739   1.5794   1.5815   1.5873
     1.6918   1.6952   1.6994   1.7029   1.7354   1.7372   1.7423   1.7441
     1.9969   1.9993   2.0034   2.0059   2.0376   2.0401   2.0535   2.0559
     2.1476   2.1501   2.1541   2.1565   2.2723   2.2753   2.2850   2.2881
     2.3590   2.3611   2.3724   2.3741   2.5327   2.5369   2.5580   2.5630
     2.5965   2.5993   2.6352   2.6371   2.6638   2.6658   2.6733   2.6746
     2.7722   2.7747   2.7802   2.7829   2.8746   2.8789   2.8946   2.8986
     2.9610   2.9628   2.9702   2.9716   3.0519   3.0536   3.0620   3.0639
     3.2622   3.2655   3.2729   3.2767   3.3776   3.3823   3.3918   3.3965
     3.4146   3.4178   3.4746   3.4785   3.5368   3.5393   3.5470   3.5500
     3.5809   3.5833   3.5914   3.5943   3.6606   3.6647   3.6995   3.7045
     3.7829   3.7859   3.8523   3.8563   3.9532   3.9551   3.9775   3.9792
     4.0291   4.0309   4.0436   4.0458   4.0903   4.0925   4.1306   4.1317
     4.1545   4.1549   4.1813   4.1831   4.2612   4.2650   4.3171   4.3191
     4.3408   4.3413   4.3533   4.3544   4.4203   4.4229   4.4510   4.4539
     4.5012   4.5035   4.5129   4.5160   4.5238   4.5264   4.5363   4.5373
     4.5488   4.5491   4.5955   4.5989   4.6634   4.6649   4.6795   4.6811
     4.7286   4.7315   4.8022   4.8047   4.8512   4.8537   4.8562   4.8587
     4.8892   4.8916   4.9086   4.9109   4.9749   4.9782   5.0112   5.0141
     5.0437   5.0457   5.0551   5.0570   5.1239   5.1272   5.1487   5.1508
     5.2276   5.2326   5.2453   5.2512   5.2698   5.2742   5.2749   5.2780
     5.3175   5.3190   5.3220   5.3235   5.3618   5.3652   5.4036   5.4063
     5.4331   5.4341   5.4395   5.4418   5.4618   5.4636   5.4822   5.4852

     highest occupied level (ev):     5.5995

!    total energy              =  -12670.03465230 Ry
     Harris-Foulkes estimate   =  -12670.03471228 Ry
     estimated scf accuracy    <       0.00008800 Ry

     total all-electron energy =   -212868.410154 Ry

     The total energy is the sum of the following terms:

     one-electron contribution =   -3360.76696906 Ry
     hartree contribution      =    2097.51051429 Ry
     xc contribution           =   -1379.71599618 Ry
     ewald contribution        =   -3488.92215909 Ry
     one-center paw contrib.   =   -6538.14004226 Ry

     convergence has been achieved in   7 iterations

     negative rho (up, down):  2.383E-07 0.000E+00

     Forces acting on atoms (cartesian axes, Ry/au):

     atom    1 type  1   force =     0.01443286    0.09333513    0.05173003
     atom    2 type  1   force =     0.01442125   -0.09571705   -0.05178958
     atom    3 type  1   force =     0.01447904   -0.09656240    0.05024314
     atom    4 type  1   force =     0.01443023    0.09879901   -0.05004302
     atom    5 type  1   force =    -0.02636829    0.02215057    0.01354611
     atom    6 type  1   force =    -0.02647236   -0.02384803   -0.01348263
     atom    7 type  1   force =    -0.02647101   -0.01835067    0.01191751
     atom    8 type  1   force =    -0.02653188    0.01994466   -0.01209181
     atom    9 type  1   force =     0.00538136    0.00227002   -0.04008424
     atom   10 type  1   force =     0.00524873   -0.00057847    0.04021943
     atom   11 type  1   force =     0.00570169   -0.00295631   -0.03780642
     atom   12 type  1   force =     0.00557845    0.00120887    0.03791049
     atom   13 type  1   force =    -0.00415426   -0.00823470   -0.01531253
     atom   14 type  1   force =    -0.00410346    0.00697527    0.01501212
     atom   15 type  1   force =    -0.00457786    0.00893716   -0.01628334
     atom   16 type  1   force =    -0.00450398   -0.00753011    0.01596034
     atom   17 type  1   force =     0.06465261   -0.01347068    0.02826353
     atom   18 type  1   force =     0.06502666    0.01353898   -0.02850717
     atom   19 type  1   force =     0.06489980    0.01434405    0.02675614
     atom   20 type  1   force =     0.06521803   -0.01431118   -0.02688951
     atom   21 type  1   force =     0.01820710    0.03292173   -0.00430539
     atom   22 type  1   force =     0.01870670   -0.03124006    0.00384377
     atom   23 type  1   force =     0.01851325   -0.03631972   -0.00489589
     atom   24 type  1   force =     0.01907829    0.03467737    0.00466077
     atom   25 type  2   force =     0.00274782    0.00016527   -0.00142668
     atom   26 type  2   force =     0.00267071    0.00006882    0.00136491
     atom   27 type  2   force =     0.00268474   -0.00009479   -0.00137703
     atom   28 type  2   force =     0.00265935   -0.00012201    0.00138844
     atom   29 type  2   force =     0.00082695    0.00448008    0.00014747
     atom   30 type  2   force =     0.00078614   -0.00461450   -0.00017824
     atom   31 type  2   force =     0.00077612   -0.00460014    0.00032323
     atom   32 type  2   force =     0.00079765    0.00467113   -0.00027778
     atom   33 type  2   force =    -0.00185463    0.00251839    0.00040411
     atom   34 type  2   force =    -0.00184617   -0.00236478   -0.00036505
     atom   35 type  2   force =    -0.00184521   -0.00262161    0.00031223
     atom   36 type  2   force =    -0.00184787    0.00254855   -0.00038891
     atom   37 type  2   force =     0.00917303   -0.00238474   -0.00162473
     atom   38 type  2   force =     0.00927858    0.00194995    0.00159114
     atom   39 type  2   force =     0.00910560    0.00202873   -0.00157926
     atom   40 type  2   force =     0.00918305   -0.00166011    0.00174873
     atom   41 type  3   force =    -0.02389369   -0.06119687   -0.01368270
     atom   42 type  3   force =    -0.02403530    0.06261951    0.01372482
     atom   43 type  3   force =    -0.02406747    0.06190532   -0.01424665
     atom   44 type  3   force =    -0.02401843   -0.06333883    0.01409333
     atom   45 type  3   force =    -0.00601902    0.04823853    0.03567647
     atom   46 type  3   force =    -0.00609048   -0.04818422   -0.03564451
     atom   47 type  3   force =    -0.00602082   -0.04717308    0.03536844
     atom   48 type  3   force =    -0.00587187    0.04741484   -0.03526024
     atom   49 type  3   force =    -0.01949472    0.00831175    0.01570831
     atom   50 type  3   force =    -0.01956891   -0.00828449   -0.01562850
     atom   51 type  3   force =    -0.01952232   -0.00739624    0.01594324
     atom   52 type  3   force =    -0.01949359    0.00748386   -0.01573409
     atom   53 type  3   force =    -0.01568047   -0.00941466   -0.00377157
     atom   54 type  3   force =    -0.01569675    0.00965178    0.00426125
     atom   55 type  3   force =    -0.01572539    0.00940797   -0.00425362
     atom   56 type  3   force =    -0.01572432   -0.00980377    0.00460592
     atom   57 type  3   force =     0.00143295   -0.00878722    0.01132982
     atom   58 type  3   force =     0.00124464    0.00828995   -0.01121204
     atom   59 type  3   force =     0.00156669    0.00915687    0.01130961
     atom   60 type  3   force =     0.00143151   -0.00861318   -0.01130384
     atom   61 type  3   force =    -0.04662124   -0.00854288   -0.02591387
     atom   62 type  3   force =    -0.04667079    0.00811168    0.02557236
     atom   63 type  3   force =    -0.04692602    0.00836810   -0.02623621
     atom   64 type  3   force =    -0.04703777   -0.00783411    0.02620205
     atom   65 type  3   force =    -0.00491905    0.00141843   -0.01876466
     atom   66 type  3   force =    -0.00481227   -0.00102295    0.01858598
     atom   67 type  3   force =    -0.00495997   -0.00113858   -0.01891130
     atom   68 type  3   force =    -0.00497028    0.00095435    0.01881957
     atom   69 type  3   force =    -0.00135532   -0.09328895   -0.01892493
     atom   70 type  3   force =    -0.00174641    0.09358433    0.01893872
     atom   71 type  3   force =    -0.00118634    0.09383291   -0.01819154
     atom   72 type  3   force =    -0.00150159   -0.09429445    0.01827013
     atom   73 type  3   force =    -0.04564552   -0.01735318   -0.01352111
     atom   74 type  3   force =    -0.04614457    0.01786579    0.01354626
     atom   75 type  3   force =    -0.04557060    0.01761757   -0.01372936
     atom   76 type  3   force =    -0.04595928   -0.01817744    0.01377823
     atom   77 type  3   force =    -0.00748300    0.04527213    0.02159817
     atom   78 type  3   force =    -0.00744632   -0.04559460   -0.02160484
     atom   79 type  3   force =    -0.00771215   -0.04578806    0.02184526
     atom   80 type  3   force =    -0.00759399    0.04575250   -0.02199225
     atom   81 type  3   force =    -0.01627339   -0.00545312   -0.00373020
     atom   82 type  3   force =    -0.01627040    0.00596377    0.00364762
     atom   83 type  3   force =    -0.01612865    0.00467705   -0.00372280
     atom   84 type  3   force =    -0.01614624   -0.00526182    0.00360350
     atom   85 type  3   force =     0.01878530    0.01587308    0.00974254
     atom   86 type  3   force =     0.01862250   -0.01520477   -0.00985360
     atom   87 type  3   force =     0.01866083   -0.01663027    0.01040378
     atom   88 type  3   force =     0.01840056    0.01595520   -0.01030014
     atom   89 type  3   force =     0.00816523    0.02081769    0.01650808
     atom   90 type  3   force =     0.00802993   -0.02064196   -0.01670746
     atom   91 type  3   force =     0.00813860   -0.02034756    0.01622427
     atom   92 type  3   force =     0.00812737    0.02006125   -0.01617441
     atom   93 type  3   force =     0.02301100   -0.00058158   -0.00780200
     atom   94 type  3   force =     0.02296492    0.00052592    0.00780845
     atom   95 type  3   force =     0.02286019    0.00129026   -0.00760909
     atom   96 type  3   force =     0.02273988   -0.00098829    0.00763649
     atom   97 type  3   force =     0.06312817   -0.00521667   -0.01897067
     atom   98 type  3   force =     0.06311548    0.00530940    0.01885704
     atom   99 type  3   force =     0.06316036    0.00513568   -0.01858960
     atom  100 type  3   force =     0.06319909   -0.00546278    0.01846052
[...]
     4.1695   4.1718   4.1819   4.1842   4.2216   4.2230   4.2551   4.2562
     4.2853   4.2863   4.3205   4.3215   4.3432   4.3444   4.3531   4.3544
     4.4200   4.4208   4.4289   4.4323   4.5270   4.5274   4.5284   4.5285
     4.5533   4.5547   4.5593   4.5601   4.6761   4.6783   4.6827   4.6855
     4.7127   4.7141   4.7176   4.7182   4.7699   4.7726   4.7737   4.7773
     4.9210   4.9232   4.9263   4.9288   4.9786   4.9798   4.9847   4.9863
     5.0684   5.0739   5.0763   5.0818   5.1163   5.1184   5.1231   5.1240
     5.1310   5.1330   5.1357   5.1396   5.1617   5.1637   5.1729   5.1760
     5.2610   5.2624   5.2663   5.2673   5.2691   5.2723   5.2740   5.2746
     5.3483   5.3504   5.3515   5.3540   5.3653   5.3674   5.3695   5.3722

     highest occupied level (ev):     5.5668

!    total energy              =  -12670.37017230 Ry
     Harris-Foulkes estimate   =  -12670.37017266 Ry
     estimated scf accuracy    <       0.00000066 Ry

     total all-electron energy =   -212868.745674 Ry

     The total energy is the sum of the following terms:

     one-electron contribution =   -3357.55212618 Ry
     hartree contribution      =    2095.67113558 Ry
     xc contribution           =   -1379.73452171 Ry
     ewald contribution        =   -3490.65708867 Ry
     one-center paw contrib.   =   -6538.09757133 Ry

     convergence has been achieved in   5 iterations

     negative rho (up, down):  2.202E-06 0.000E+00

     Forces acting on atoms (cartesian axes, Ry/au):

     atom    1 type  1   force =    -0.00009085   -0.00023083   -0.00055028
     atom    2 type  1   force =    -0.00002616    0.00024598    0.00034697
     atom    3 type  1   force =    -0.00019777    0.00005668   -0.00016755
     atom    4 type  1   force =     0.00000512   -0.00003561    0.00010682
     atom    5 type  1   force =    -0.00037573    0.00030252   -0.00060034
     atom    6 type  1   force =    -0.00047249   -0.00030512    0.00056494
     atom    7 type  1   force =    -0.00057735    0.00011189   -0.00083852
     atom    8 type  1   force =    -0.00063975   -0.00005720    0.00096189
     atom    9 type  1   force =    -0.00013952   -0.00012023   -0.00054991
     atom   10 type  1   force =    -0.00012490   -0.00007694    0.00033467
     atom   11 type  1   force =    -0.00018479    0.00003417   -0.00038269
     atom   12 type  1   force =    -0.00012157    0.00008024    0.00025411
     atom   13 type  1   force =    -0.00013190   -0.00004451   -0.00018767
     atom   14 type  1   force =    -0.00012164    0.00003307    0.00018837
     atom   15 type  1   force =    -0.00019321    0.00017347   -0.00039845
     atom   16 type  1   force =    -0.00018853   -0.00010959    0.00041344
     atom   17 type  1   force =    -0.00055948   -0.00009102   -0.00040890
     atom   18 type  1   force =    -0.00050223    0.00019123    0.00035753
     atom   19 type  1   force =    -0.00038793    0.00000852   -0.00006081
     atom   20 type  1   force =    -0.00036579   -0.00021160    0.00007906
     atom   21 type  1   force =     0.00015413    0.00033533   -0.00036485
     atom   22 type  1   force =     0.00002780   -0.00023965    0.00034872
     atom   23 type  1   force =     0.00025907   -0.00003592   -0.00003936
     atom   24 type  1   force =     0.00020998   -0.00011059    0.00015498
     atom   25 type  2   force =     0.00001658    0.00039915   -0.00026545
     atom   26 type  2   force =    -0.00002405   -0.00028888    0.00039780
     atom   27 type  2   force =    -0.00001206    0.00002165   -0.00028101
     atom   28 type  2   force =     0.00006776    0.00006070    0.00034619
     atom   29 type  2   force =    -0.00001780    0.00016212   -0.00010022
     atom   30 type  2   force =    -0.00001595   -0.00022960    0.00009019
     atom   31 type  2   force =     0.00006851    0.00003797    0.00008750
     atom   32 type  2   force =     0.00000506    0.00005820   -0.00003770
     atom   33 type  2   force =    -0.00010324    0.00010611   -0.00050301
     atom   34 type  2   force =    -0.00012863   -0.00011945    0.00036680
     atom   35 type  2   force =    -0.00008444   -0.00022907   -0.00023359
     atom   36 type  2   force =    -0.00001455    0.00022385    0.00021242
     atom   37 type  2   force =     0.00022012   -0.00027617    0.00017224
     atom   38 type  2   force =     0.00034428    0.00017314   -0.00022558
     atom   39 type  2   force =     0.00023552    0.00030175    0.00000312
     atom   40 type  2   force =     0.00036857   -0.00012775    0.00004632
     atom   41 type  3   force =     0.00010994    0.00041857   -0.00022247
     atom   42 type  3   force =     0.00023324   -0.00033428    0.00017039
     atom   43 type  3   force =     0.00024933    0.00000486   -0.00033363
     atom   44 type  3   force =     0.00039257   -0.00007562    0.00037367
     atom   45 type  3   force =    -0.00002090    0.00019934    0.00062456
     atom   46 type  3   force =    -0.00000186   -0.00022659   -0.00038291
     atom   47 type  3   force =     0.00045071    0.00001254    0.00073234
     atom   48 type  3   force =     0.00027557   -0.00003351   -0.00036250
     atom   49 type  3   force =     0.00018115   -0.00030358   -0.00058626
     atom   50 type  3   force =     0.00030587    0.00022121    0.00040688
     atom   51 type  3   force =     0.00017060    0.00054192   -0.00037124
     atom   52 type  3   force =     0.00022107   -0.00036264    0.00018663
     atom   53 type  3   force =     0.00045809    0.00007370   -0.00056745
     atom   54 type  3   force =     0.00044092   -0.00032251    0.00039390
     atom   55 type  3   force =     0.00030675   -0.00014457   -0.00013842
     atom   56 type  3   force =     0.00048365    0.00015672    0.00009047
     atom   57 type  3   force =     0.00063965   -0.00042340   -0.00007429
     atom   58 type  3   force =     0.00078967    0.00019352    0.00005294
     atom   59 type  3   force =     0.00073245    0.00062499    0.00024721
     atom   60 type  3   force =     0.00084912   -0.00042809   -0.00014836
     atom   61 type  3   force =    -0.00012092    0.00026074   -0.00025920
     atom   62 type  3   force =    -0.00029403   -0.00025126    0.00023992
     atom   63 type  3   force =     0.00000008   -0.00013112    0.00023014
     atom   64 type  3   force =    -0.00015440    0.00014398   -0.00021538
     atom   65 type  3   force =     0.00032977    0.00021959    0.00028661
     atom   66 type  3   force =     0.00028438   -0.00032825   -0.00037409
     atom   67 type  3   force =     0.00033986    0.00003838    0.00036042
     atom   68 type  3   force =     0.00034573    0.00008366   -0.00041584
     atom   69 type  3   force =    -0.00010971   -0.00088699   -0.00091524
     atom   70 type  3   force =    -0.00012151    0.00096675    0.00086839
     atom   71 type  3   force =    -0.00031047    0.00089992   -0.00066076
     atom   72 type  3   force =    -0.00025002   -0.00086869    0.00075611
     atom   73 type  3   force =    -0.00038942   -0.00041685    0.00004115
     atom   74 type  3   force =    -0.00041279    0.00039866    0.00003184
     atom   75 type  3   force =    -0.00027483    0.00035916    0.00039580
     atom   76 type  3   force =    -0.00028600   -0.00041823   -0.00034791
     atom   77 type  3   force =     0.00041279    0.00026165    0.00027778
     atom   78 type  3   force =     0.00029635   -0.00028615   -0.00021332
     atom   79 type  3   force =     0.00054637   -0.00025633    0.00044867
     atom   80 type  3   force =     0.00046547    0.00034650   -0.00043838
     atom   81 type  3   force =    -0.00068222    0.00002795   -0.00028265
     atom   82 type  3   force =    -0.00068134    0.00001760    0.00035823
     atom   83 type  3   force =    -0.00069779    0.00026306   -0.00004775
     atom   84 type  3   force =    -0.00066254   -0.00014504    0.00012983
     atom   85 type  3   force =     0.00017962    0.00006004   -0.00011638
     atom   86 type  3   force =     0.00015512    0.00003096    0.00000985
     atom   87 type  3   force =     0.00016609   -0.00004659    0.00001740
     atom   88 type  3   force =     0.00014809   -0.00018224   -0.00004814
     atom   89 type  3   force =    -0.00063983    0.00019835    0.00044860
     atom   90 type  3   force =    -0.00067698   -0.00018155   -0.00052898
     atom   91 type  3   force =    -0.00059186   -0.00020940    0.00072639
     atom   92 type  3   force =    -0.00074662    0.00019296   -0.00074291
     atom   93 type  3   force =     0.00012988    0.00042773   -0.00018591
     atom   94 type  3   force =     0.00014294   -0.00043317    0.00018807
     atom   95 type  3   force =     0.00008209   -0.00019807    0.00018470
     atom   96 type  3   force =     0.00012860    0.00007375   -0.00004658
     atom   97 type  3   force =     0.00038062    0.00000554    0.00026878
     atom   98 type  3   force =     0.00037937    0.00001910   -0.00020394
     atom   99 type  3   force =     0.00041204    0.00009321    0.00067474
     atom  100 type  3   force =     0.00045373   -0.00025292   -0.00065402
     atom  101 type  3   force =    -0.00014159    0.00008184   -0.00000917
     atom  102 type  3   force =    -0.00060966   -0.00009790   -0.00000418
     atom  103 type  3   force =    -0.00014925    0.00008143    0.00040372
     atom  104 type  3   force =    -0.00039476    0.00017310   -0.00030609
     atom  105 type  3   force =    -0.00020751    0.00003843   -0.00015892
     atom  106 type  3   force =     0.00007055   -0.00010707    0.00010978
     atom  107 type  3   force =     0.00008049    0.00009296    0.00003257
     atom  108 type  3   force =     0.00022822   -0.00012980   -0.00004341

     Total force =     0.006157     Total SCF correction =     0.003162
     SCF correction compared to forces is large: reduce conv_thr to get better values

     bfgs converged in  24 scf cycles and  23 bfgs steps
     (criteria: energy <  1.0E-04 Ry, force <  1.0E-03 Ry/Bohr)

     End of BFGS Geometry Optimization

     Final energy   =  -12670.3701723040 Ry
Begin final coordinates

ATOMIC_POSITIONS (angstrom)
Nb            2.0424804296       14.3145519388        3.0443912022
Nb            5.9551433793        2.6929704880        0.4043395512
Nb            5.9626929285       19.3108886880        6.2980296468
Nb            2.0448284486       30.9294831248        3.6118815063
Nb            2.0713888859        2.6866981243        0.4026747817
Nb            5.9857028341       14.3208809417        3.0430404309
Nb            5.9863928141       30.9334729898        3.6133369701
Nb            2.0715504785       19.3081706541        6.2934768802
Nb            2.0223225622       12.6565655408        0.1813101618
Nb            5.9365560845        4.3585730796        3.2680136454
Nb            5.9404208934       20.9666298644        3.4331102118
Nb            2.0245222191       29.2646374979        0.0188550410
Nb            2.1289415961        4.3462470080        3.2631884538
Nb            6.0445358586       12.6638607512        0.1832634726
Nb            6.0473015787       29.2717809639        6.4772637385
Nb            2.1321279943       20.9647417206        3.4314434904
Nb            4.0300754838       11.6573839879        2.6098739581
Nb            0.1138648885        5.3471332508        0.8340405502
Nb            0.1171720102       21.9758141258        5.8490887523
Nb            4.0312021731       28.2658385163        4.0606234610
Nb            4.0337905098       10.0631127811        6.1253854193
Nb            0.1214136831        6.9435371629        3.7798216173
Nb            0.1181479365       23.5655541571        2.9006345322
Nb            4.0357797476       26.6771793277        0.5512207663
K             4.0325843982       15.8320103823        5.9685686596
K             0.1133098746        1.1954882556        3.9381101467
K             0.1171845213       17.7917957897        2.7501568635
K             4.0296289666       32.4272829467        0.6939172846
K             0.1099781188       15.7395182094        5.9644866838
K             4.0243633388        1.2795994678        3.9430722966
K             4.0252119157       17.8897779608        2.7436433913
K             0.1113174278       32.3374543009        0.7045069232
K             0.1170273977       11.2853928250        3.8445591609
K             4.0316666840        5.7247041252        6.0662075634
K             4.0338574140       22.3399118659        0.6241481676
K             0.1179470918       27.8999097327        2.8298960658
K             0.1123805088        9.1742025947        0.3490440435
K             4.0252765167        7.8296898485        3.0945110598
K             4.0309360508       24.4415309717        3.5827496845
K             0.1125219990       25.8011464951        6.3284405568
O             2.2472904535       16.0012381356        3.6128277347
O             6.1545453660        1.0057280868        6.2968248523
O             6.1726276283       17.6234412128        0.4000466139
O             2.2475555123       32.6164322336        3.0468145715
O             5.7766792981       16.0082534080        3.6078178519
O             1.8664379775        1.0002938284        6.2945763675
O             1.8527670942       17.6211482436        0.3941852488
O             5.7736047896       32.6199351002        3.0501097478
O             1.9978554698       13.4068632379        4.9273733787
O             5.9145071798        3.6016041677        4.9797220024
O             5.9162154872       20.2036187034        1.7216625457
O             2.0004975265       30.0296883702        1.7307225972
O             6.0343121272       13.4250085266        4.9356944525
O             2.1156101382        3.5888169084        4.9726388464
O             2.1237455526       20.1996280239        1.7226360964
O             6.0368471279       30.0378393480        1.7267405558
O             2.1609558424       10.7202986202        6.1863404193
O             6.0753107988        6.2909501763        3.7226156247
O             6.0788011046       22.9014718206        2.9624997320
O             2.1630395727       27.3346064734        0.4923574622
O             5.9013860243       10.7298603142        6.1811062894
O             1.9873868337        6.2777038451        3.7263675136
O             1.9846467746       22.8975885081        2.9604515592
O             5.9016304405       27.3447266412        0.4960479524
O             2.0917166248       14.4558847263        1.0869121289
O             6.0027275333        2.5581387904        2.3597708697
O             6.0126805345       19.1685143030        4.3378933557
O             2.0958309910       31.0634815015        5.5706247345
O             5.9370953319       14.4673090626        1.0893718085
O             2.0237017452        2.5437171399        2.3559077863
O             2.0246777227       19.1623920614        4.3365164273
O             5.9399022623       31.0733823450        5.5692164096
O             2.1476869052       12.0911871587        2.2679948000
O             6.0619155492        4.9196871132        1.1801309382
O             6.0631978893       21.5375189194        5.5117358663
O             2.1476277262       28.6953052032        4.4019924144
O             5.9077314876       12.1040676261        2.2713222278
O             1.9919077518        4.9065822068        1.1758255234
O             1.9967896971       21.5288202173        5.5144486009
O             5.9110651464       28.7070982675        4.3975805242
O             4.0289157027       12.4719033388        0.4470740556
O             0.1132252378        4.5321972307        2.9999722625
O             0.1163574427       21.1561929801        3.6939338027
O             4.0309870115       29.0874885443        6.2192759112
O             0.1138245830       12.4437896473        0.3676256717
O             4.0281240216        4.5665033467        3.0810679081
O             4.0314448593       21.1856949994        3.6051020088
O             0.1161545622       29.0522983975        6.3038159072
O             4.0436152798        9.9805853299        1.6417909382
O             7.9574221557        7.0229385359        1.8046789614
O             7.9571852777       23.6505661041        4.8791524115
O             4.0441459562       26.5928902949        5.0342151407
O             0.1011079741       14.1656376553        3.1146059720
O             4.0147431120        2.8524436889        0.3298808554
O             4.0192990876       19.4510983795        6.3568059219
O             0.1027417449       30.7798678967        3.5524615007
O             4.0180257287       13.7318944795        3.1000908348
O             7.9321352519        3.2751075941        0.3463376479
O             7.9356259446       19.9023778723        6.3446608302
O             4.0193405431       30.3361840235        3.5647483423
O             4.0381381738        8.3227545404        5.7481272103
O             0.1333169251        8.6851198977        4.1500669116
O             0.1208570804       25.3057919447        2.5236309021
O             4.0456472279       24.9360200440        0.9237415383
O             4.0319882499       10.8366262571        4.2498740281
O             0.1139898435        6.1752368955        5.6569252182
O             0.1183907643       22.7969458423        1.0274808740
O             4.0313555970       27.4353312055        2.4266252072
End final coordinates



     Writing output data file ./outdir/knbo.save/
 
     init_run     :     55.71s CPU     56.11s WALL (       1 calls)
     electrons    :  34277.95s CPU  34422.10s WALL (      29 calls)
     update_pot   :    137.14s CPU    137.63s WALL (      28 calls)
     forces       :    743.99s CPU    753.61s WALL (      29 calls)

     Called by init_run:
     wfcinit      :     48.94s CPU     49.16s WALL (       1 calls)
     potinit      :      4.23s CPU      4.32s WALL (       1 calls)
     hinit0       :      2.03s CPU      2.05s WALL (       1 calls)

     Called by electrons:
     c_bands      :  32057.76s CPU  32165.70s WALL (     180 calls)
     sum_band     :   1651.08s CPU   1663.11s WALL (     180 calls)
     v_of_rho     :     13.01s CPU     13.07s WALL (     197 calls)
     newd         :     71.70s CPU     77.67s WALL (     197 calls)
     PAW_pot      :    660.95s CPU    661.95s WALL (     225 calls)
     mix_rho      :      2.17s CPU      2.16s WALL (     180 calls)

     Called by c_bands:
     init_us_2    :     50.95s CPU     51.08s WALL (    1672 calls)
     cegterg      :  31722.22s CPU  31829.14s WALL (     720 calls)

     Called by sum_band:
     sum_band:bec :     11.24s CPU     11.27s WALL (     832 calls)
     addusdens    :     74.97s CPU     83.29s WALL (     180 calls)

     Called by *egterg:
     h_psi        :   8619.43s CPU   8652.74s WALL (    3398 calls)
     s_psi        :   2731.18s CPU   2734.71s WALL (    3398 calls)
     g_psi        :     11.46s CPU     11.44s WALL (    2674 calls)
     cdiaghg      :  13613.45s CPU  13629.49s WALL (    3234 calls)

     Called by h_psi:
     h_psi:calbec :   2802.78s CPU   2805.79s WALL (    3398 calls)
     vloc_psi     :   3049.60s CPU   3061.46s WALL (    3398 calls)
     add_vuspsi   :   2742.37s CPU   2745.50s WALL (    3398 calls)

     General routines
     calbec       :   4521.74s CPU   4532.03s WALL (    4694 calls)
     fft          :     12.26s CPU     12.29s WALL (    2526 calls)
     ffts         :      0.58s CPU      0.59s WALL (     180 calls)
     fftw         :   3252.54s CPU   3262.90s WALL ( 2102150 calls)
 
     Parallel routines
     fft_scatt_xy :    440.70s CPU    443.13s WALL ( 2104856 calls)
     fft_scatt_yz :    850.71s CPU    850.62s WALL ( 2104856 calls)
 
     PWSCF        :      9h51m CPU      9h54m WALL

 
   This run was terminated on:   9:41:50  15Jun2020            

=------------------------------------------------------------------------------=
   JOB DONE.
=------------------------------------------------------------------------------=
