
     Program PWSCF v.6.5 starts on 16Jun2020 at 10:52:33 

     This program is part of the open-source Quantum ESPRESSO suite
     for quantum simulation of materials; please cite
         "P. Giannozzi et al., J. Phys.:Condens. Matter 21 395502 (2009);
         "P. Giannozzi et al., J. Phys.:Condens. Matter 29 465901 (2017);
          URL http://www.quantum-espresso.org", 
     in publications or presentations arising from this work. More details at
     http://www.quantum-espresso.org/quote

     Parallel version (MPI), running on    16 processors

     MPI processes distributed on     1 nodes
     R & G space division:  proc/nbgrp/npool/nimage =      16
     Reading input from knbo_relax_2.in

     Current dimensions of program PWSCF are:
     Max number of different atomic species (ntypx) = 10
     Max number of k-points (npk) =  40000
     Max angular momentum in pseudopotentials (lmaxx) =  3
               file Nb.pbe-spn-kjpaw_psl.0.3.0.UPF: wavefunction(s)  4S 4P renormalized
               file K.pbe-spn-kjpaw_psl.1.0.0.UPF: wavefunction(s)  3S renormalized
               file O.pbe-n-kjpaw_psl.0.1.UPF: wavefunction(s)  2P renormalized

     Subspace diagonalization in iterative solution of the eigenvalue problem:
     a serial algorithm will be used

 
     Parallelization info
     --------------------
     sticks:   dense  smooth     PW     G-vecs:    dense   smooth      PW
     Min         553     553    155                15734    15734    2348
     Max         555     555    157                15735    15735    2349
     Sum        8865    8865   2495               251747   251747   37577
 


     bravais-lattice index     =            8
     lattice parameter (alat)  =      14.7966  a.u.
     unit-cell volume          =   11335.9946 (a.u.)^3
     number of atoms/cell      =          107
     number of atomic types    =            3
     number of electrons       =       855.00
     number of Kohn-Sham states=          514
     kinetic-energy cutoff     =      30.0000  Ry
     charge density cutoff     =     120.0000  Ry
     convergence threshold     =      1.0E-05
     mixing beta               =       0.4000
     number of iterations used =            8  plain     mixing
     Exchange-correlation= SLA PW PBX PBC
                           (   1   4   3   4   0   0   0)
     nstep                     =           50


     celldm(1)=  14.796556  celldm(2)=   4.241378  celldm(3)=   0.825032
     celldm(4)=   0.000000  celldm(5)=   0.000000  celldm(6)=   0.000000

     crystal axes: (cart. coord. in units of alat)
               a(1) = (   1.000000   0.000000   0.000000 )  
               a(2) = (   0.000000   4.241378   0.000000 )  
               a(3) = (   0.000000   0.000000   0.825032 )  

     reciprocal axes: (cart. coord. in units 2 pi/alat)
               b(1) = (  1.000000  0.000000  0.000000 )  
               b(2) = (  0.000000  0.235772  0.000000 )  
               b(3) = (  0.000000  0.000000  1.212074 )  


     PseudoPot. # 1 for Nb read from file:
     ./Nb.pbe-spn-kjpaw_psl.0.3.0.UPF
     MD5 check sum: 411d72ad547312f8017e2943ceca08cc
     Pseudo is Projector augmented-wave + core cor, Zval = 13.0
     Generated using "atomic" code by A. Dal Corso v.5.0.99 svn rev. 10869
     Shape of augmentation charge: PSQ
     Using radial grid of 1227 points,  6 beta functions with: 
                l(1) =   0
                l(2) =   0
                l(3) =   1
                l(4) =   1
                l(5) =   2
                l(6) =   2
     Q(r) pseudized with 0 coefficients 


     PseudoPot. # 2 for K  read from file:
     ./K.pbe-spn-kjpaw_psl.1.0.0.UPF
     MD5 check sum: 7d58810084cac21f60fbe77ea2b688fd
     Pseudo is Projector augmented-wave + core cor, Zval =  9.0
     Generated using "atomic" code by A. Dal Corso v.5.1
     Shape of augmentation charge: PSQ
     Using radial grid of 1165 points,  6 beta functions with: 
                l(1) =   0
                l(2) =   0
                l(3) =   1
                l(4) =   1
                l(5) =   2
                l(6) =   2
     Q(r) pseudized with 0 coefficients 


     PseudoPot. # 3 for O  read from file:
     ./O.pbe-n-kjpaw_psl.0.1.UPF
     MD5 check sum: 0234752ac141de4415c5fc33072bef88
     Pseudo is Projector augmented-wave + core cor, Zval =  6.0
     Generated using "atomic" code by A. Dal Corso v.5.0.99 svn rev. 10869
     Shape of augmentation charge: BESSEL
     Using radial grid of 1095 points,  4 beta functions with: 
                l(1) =   0
                l(2) =   0
                l(3) =   1
                l(4) =   1
     Q(r) pseudized with 0 coefficients 


     atomic species   valence    mass     pseudopotential
        Nb            13.00    92.90638     Nb( 1.00)
        K              9.00    39.09830     K ( 1.00)
        O              6.00    15.99940     O ( 1.00)

     No symmetry found



   Cartesian axes

     site n.     atom                  positions (alat units)
         1           Nb  tau(   1) = (   0.2562277   1.8253102   0.3866222  )
         2           Nb  tau(   2) = (   0.7562277   0.3482066   0.0537862  )
         3           Nb  tau(   3) = (   0.7562277   2.4688969   0.7991382  )
         4           Nb  tau(   4) = (   0.2562277   3.9459992   0.4663022  )
         5           Nb  tau(   5) = (   0.2640977   0.3484188   0.0504045  )
         6           Nb  tau(   6) = (   0.7640977   1.8250982   0.3900041  )
         7           Nb  tau(   7) = (   0.7640977   3.9457872   0.4629204  )
         8           Nb  tau(   8) = (   0.2640977   2.4691091   0.8025201  )
         9           Nb  tau(   9) = (   0.2551167   1.6178645   0.0187397  )
        10           Nb  tau(  10) = (   0.7551167   0.5556525   0.4216688  )
        11           Nb  tau(  11) = (   0.7551167   2.6763428   0.4312557  )
        12           Nb  tau(  12) = (   0.2551167   3.7385535   0.0091529  )
        13           Nb  tau(  13) = (   0.2709378   0.5473393   0.4120332  )
        14           Nb  tau(  14) = (   0.7709378   1.6261775   0.0283752  )
        15           Nb  tau(  15) = (   0.7709378   3.7468665   0.8245492  )
        16           Nb  tau(  16) = (   0.2709378   2.6680296   0.4408912  )
        17           Nb  tau(  17) = (   0.5179387   1.4914290   0.3332006  )
        18           Nb  tau(  18) = (   0.0179387   0.6820880   0.1072079  )
        19           Nb  tau(  19) = (   0.0179387   2.8027783   0.7457166  )
        20           Nb  tau(  20) = (   0.5179387   3.6121180   0.5197239  )
        21           Nb  tau(  21) = (   0.5176387   1.2984462   0.7814405  )
        22           Nb  tau(  22) = (   0.0176387   0.8750706   0.4840000  )
        23           Nb  tau(  23) = (   0.0176387   2.9957609   0.3689245  )
        24           Nb  tau(  24) = (   0.5176387   3.4191352   0.0714840  )
        25           K   tau(  25) = (   0.5046457   2.0237644   0.7573932  )
        26           K   tau(  26) = (   0.0046457   0.1497526   0.5080471  )
        27           K   tau(  27) = (   0.0046457   2.2704429   0.3448773  )
        28           K   tau(  28) = (   0.5046457   4.1444534   0.0955312  )
        29           K   tau(  29) = (   0.5071558   0.1632826   0.5128299  )
        30           K   tau(  30) = (   0.5071558   2.2839729   0.3400946  )
        31           K   tau(  31) = (   0.0071558   4.1309234   0.1003139  )
        32           K   tau(  32) = (   0.0061538   1.4342552   0.4956957  )
        33           K   tau(  33) = (   0.5061538   0.7392617   0.7697448  )
        34           K   tau(  34) = (   0.5061538   2.8599520   0.0831797  )
        35           K   tau(  35) = (   0.0061538   3.5549442   0.3572289  )
        36           K   tau(  36) = (   0.0104618   1.1776519   0.0509217  )
        37           K   tau(  37) = (   0.5104618   0.9958651   0.3894867  )
        38           K   tau(  38) = (   0.5104618   3.1165554   0.4634377  )
        39           K   tau(  39) = (   0.0104618   3.2983409   0.8020027  )
        40           O   tau(  40) = (   0.2994167   2.0280057   0.4498203  )
        41           O   tau(  41) = (   0.7994167   0.1455112   0.8156202  )
        42           O   tau(  42) = (   0.7994167   2.2662015   0.0373043  )
        43           O   tau(  43) = (   0.2994167   4.1486948   0.4031042  )
        44           O   tau(  44) = (   0.7425008   2.0534328   0.4501308  )
        45           O   tau(  45) = (   0.2425008   0.1200842   0.8153097  )
        46           O   tau(  46) = (   0.2425008   2.2407745   0.0376148  )
        47           O   tau(  47) = (   0.7425008   4.1741218   0.4027937  )
        48           O   tau(  48) = (   0.2693618   1.6999351   0.6307814  )
        49           O   tau(  49) = (   0.7693618   0.4735819   0.6346590  )
        50           O   tau(  50) = (   0.7693618   2.5942722   0.2182654  )
        51           O   tau(  51) = (   0.2693618   3.8206241   0.2221430  )
        52           O   tau(  52) = (   0.7751678   1.7386165   0.6461344  )
        53           O   tau(  53) = (   0.2751678   0.4349004   0.6193060  )
        54           O   tau(  54) = (   0.2751678   2.5555907   0.2336184  )
        55           O   tau(  55) = (   0.7751678   3.8593055   0.2067900  )
        56           O   tau(  56) = (   0.2790598   1.3755545   0.7739236  )
        57           O   tau(  57) = (   0.7790598   0.7979625   0.4915169  )
        58           O   tau(  58) = (   0.7790598   2.9186527   0.3614077  )
        59           O   tau(  59) = (   0.2790598   3.4962436   0.0790009  )
        60           O   tau(  60) = (   0.7705008   1.3765174   0.8060503  )
        61           O   tau(  61) = (   0.2705008   0.7969996   0.4593900  )
        62           O   tau(  62) = (   0.2705008   2.9176899   0.3935344  )
        63           O   tau(  63) = (   0.7705008   3.4972064   0.0468741  )
        64           O   tau(  64) = (   0.2615687   1.8433361   0.1417074  )
        65           O   tau(  65) = (   0.7615687   0.3301808   0.2987011  )
        66           O   tau(  66) = (   0.7615687   2.4508711   0.5542234  )
        67           O   tau(  67) = (   0.2615687   3.9640252   0.7112171  )
        68           O   tau(  68) = (   0.7654097   1.8935328   0.1506627  )
        69           O   tau(  69) = (   0.2654097   0.2799842   0.2897457  )
        70           O   tau(  70) = (   0.2654097   2.4006745   0.5631787  )
        71           O   tau(  71) = (   0.7654097   4.0142218   0.7022617  )
        72           O   tau(  72) = (   0.2751627   1.5532259   0.2959860  )
        73           O   tau(  73) = (   0.7751627   0.6202911   0.1444226  )
        74           O   tau(  74) = (   0.7751627   2.7409814   0.7085019  )
        75           O   tau(  75) = (   0.2751627   3.6739149   0.5569386  )
        76           O   tau(  76) = (   0.7448008   1.5219881   0.2804208  )
        77           O   tau(  77) = (   0.2448008   0.6515289   0.1599876  )
        78           O   tau(  78) = (   0.2448008   2.7722192   0.6929368  )
        79           O   tau(  79) = (   0.7448008   3.6426771   0.5725036  )
        80           O   tau(  80) = (   0.5161857   1.5998386   0.0644720  )
        81           O   tau(  81) = (   0.0161857   0.5736783   0.3759364  )
        82           O   tau(  82) = (   0.0161857   2.6943686   0.4769880  )
        83           O   tau(  83) = (   0.5161857   3.7205276   0.7884524  )
        84           O   tau(  84) = (   0.0130028   1.5826186   0.0399042  )
        85           O   tau(  85) = (   0.5130028   0.5908983   0.4005042  )
        86           O   tau(  86) = (   0.5130028   2.7115886   0.4524202  )
        87           O   tau(  87) = (   0.0130028   3.7033077   0.8130202  )
        88           O   tau(  88) = (   0.4916958   1.2674885   0.2062323  )
        89           O   tau(  89) = (   0.9916958   0.9060285   0.2341761  )
        90           O   tau(  90) = (   0.9916958   3.0267188   0.6187483  )
        91           O   tau(  91) = (   0.4916958   3.3881775   0.6466921  )
        92           O   tau(  92) = (   0.0062381   1.7979958   0.4122354  )
        93           O   tau(  93) = (   0.5062381   0.3755212   0.0281732  )
        94           O   tau(  94) = (   0.5062381   2.4962115   0.8247513  )
        95           O   tau(  95) = (   0.0062381   3.9186848   0.4406891  )
        96           O   tau(  96) = (   0.4958277   1.7491775   0.4042243  )
        97           O   tau(  97) = (   0.9958277   0.4243395   0.0361842  )
        98           O   tau(  98) = (   0.9958277   2.5450298   0.8167402  )
        99           O   tau(  99) = (   0.4958277   3.8698665   0.4487001  )
       100           O   tau( 100) = (   0.5320898   1.0702165   0.7360670  )
       101           O   tau( 101) = (   0.0320898   1.1033005   0.5293734  )
       102           O   tau( 102) = (   0.0320898   3.2239895   0.3235511  )
       103           O   tau( 103) = (   0.5320898   3.1909068   0.1168575  )
       104           O   tau( 104) = (   0.5345277   1.3996456   0.5398547  )
       105           O   tau( 105) = (   0.0345277   0.7738714   0.7255858  )
       106           O   tau( 106) = (   0.0345277   2.8945617   0.1273387  )
       107           O   tau( 107) = (   0.5345277   3.5203346   0.3130699  )

     number of k points=     4  Gaussian smearing, width (Ry)=  0.1000
                       cart. coord. in units 2pi/alat
        k(    1) = (   0.0000000   0.0000000   0.0000000), wk =   0.5000000
        k(    2) = (   0.0000000   0.0000000  -0.6060372), wk =   0.5000000
        k(    3) = (  -0.5000000   0.0000000   0.0000000), wk =   0.5000000
        k(    4) = (  -0.5000000   0.0000000  -0.6060372), wk =   0.5000000

     Dense  grid:   251747 G-vectors     FFT dimensions: (  54, 225,  45)

     Estimated max dynamical RAM per process >     518.84 MB

     Estimated total dynamical RAM >       8.11 GB

     Check: negative core charge=   -0.000190

     Initial potential from superposition of free atoms

     starting charge  854.66651, renormalised to  855.00000
     Starting wfcs are  632 randomized atomic wfcs
     Checking if some PAW data can be deallocated... 

     total cpu time spent up to now is       63.8 secs

     Self-consistent Calculation

     iteration #  1     ecut=    30.00 Ry     beta= 0.40
     Davidson diagonalization with overlap
     ethr =  1.00E-02,  avg # of iterations =  3.0

     total cpu time spent up to now is      232.6 secs

     total energy              =  -12538.63386418 Ry
     Harris-Foulkes estimate   =  -12569.98793970 Ry
     estimated scf accuracy    <      55.22647321 Ry

     iteration #  2     ecut=    30.00 Ry     beta= 0.40
     Davidson diagonalization with overlap
     ethr =  6.46E-03,  avg # of iterations =  4.0

     total cpu time spent up to now is      519.0 secs

     total energy              =  -12507.12855420 Ry
     Harris-Foulkes estimate   =  -12565.89244213 Ry
     estimated scf accuracy    <     371.12800398 Ry

     iteration #  3     ecut=    30.00 Ry     beta= 0.40
     Davidson diagonalization with overlap
     ethr =  6.46E-03,  avg # of iterations =  6.2

     total cpu time spent up to now is      995.7 secs

     total energy              =  -12343.52449895 Ry
     Harris-Foulkes estimate   =  -12765.83176696 Ry
     estimated scf accuracy    <   25185.37104113 Ry

     iteration #  4     ecut=    30.00 Ry     beta= 0.40
     Davidson diagonalization with overlap
     ethr =  6.46E-03,  avg # of iterations =  9.0

     total cpu time spent up to now is     1533.5 secs

     total energy              =  -12542.46889101 Ry
     Harris-Foulkes estimate   =  -12563.58189806 Ry
     estimated scf accuracy    <     387.95243660 Ry

     iteration #  5     ecut=    30.00 Ry     beta= 0.40
     Davidson diagonalization with overlap
     ethr =  6.46E-03,  avg # of iterations =  7.0

     total cpu time spent up to now is     1893.4 secs

     total energy              =  -12533.65447948 Ry
     Harris-Foulkes estimate   =  -12568.65120094 Ry
     estimated scf accuracy    <    1566.81687817 Ry

     iteration #  6     ecut=    30.00 Ry     beta= 0.40
     Davidson diagonalization with overlap
     ethr =  6.46E-03,  avg # of iterations =  7.5

     total cpu time spent up to now is     2210.1 secs

     total energy              =  -12556.83358164 Ry
     Harris-Foulkes estimate   =  -12558.62279076 Ry
     estimated scf accuracy    <      10.96583835 Ry

     iteration #  7     ecut=    30.00 Ry     beta= 0.40
     Davidson diagonalization with overlap
     ethr =  1.28E-03,  avg # of iterations =  5.5

     total cpu time spent up to now is     2424.7 secs

     total energy              =  -12556.77200172 Ry
     Harris-Foulkes estimate   =  -12557.34865200 Ry
     estimated scf accuracy    <       4.40730570 Ry

     iteration #  8     ecut=    30.00 Ry     beta= 0.40
     Davidson diagonalization with overlap
     ethr =  5.15E-04,  avg # of iterations =  6.2

     total cpu time spent up to now is     2656.6 secs

     total energy              =  -12556.46181739 Ry
     Harris-Foulkes estimate   =  -12556.91629143 Ry
     estimated scf accuracy    <       2.40027947 Ry

     iteration #  9     ecut=    30.00 Ry     beta= 0.40
     Davidson diagonalization with overlap
     ethr =  2.81E-04,  avg # of iterations =  6.2

     negative rho (up, down):  3.285E-06 0.000E+00

     total cpu time spent up to now is     2883.0 secs

     total energy              =  -12556.40383194 Ry
     Harris-Foulkes estimate   =  -12556.60466308 Ry
     estimated scf accuracy    <       0.62557475 Ry

     iteration # 10     ecut=    30.00 Ry     beta= 0.40
     Davidson diagonalization with overlap
     ethr =  7.32E-05,  avg # of iterations =  7.0

     negative rho (up, down):  3.281E-05 0.000E+00

     total cpu time spent up to now is     3242.3 secs

     total energy              =  -12556.52807173 Ry
     Harris-Foulkes estimate   =  -12556.55356336 Ry
     estimated scf accuracy    <       0.26755815 Ry

     iteration # 11     ecut=    30.00 Ry     beta= 0.40
     Davidson diagonalization with overlap
     ethr =  3.13E-05,  avg # of iterations =  8.5

     negative rho (up, down):  1.738E-05 0.000E+00

     total cpu time spent up to now is     3516.4 secs

     total energy              =  -12556.49625189 Ry
     Harris-Foulkes estimate   =  -12556.55081511 Ry
     estimated scf accuracy    <       0.22320762 Ry

     iteration # 12     ecut=    30.00 Ry     beta= 0.40
     Davidson diagonalization with overlap
     ethr =  2.61E-05,  avg # of iterations =  8.2

     negative rho (up, down):  3.664E-05 0.000E+00

     total cpu time spent up to now is     3802.4 secs

     total energy              =  -12556.52204800 Ry
     Harris-Foulkes estimate   =  -12556.53041295 Ry
     estimated scf accuracy    <       0.03018271 Ry

     iteration # 13     ecut=    30.00 Ry     beta= 0.40
     Davidson diagonalization with overlap
     ethr =  3.53E-06,  avg # of iterations = 13.5

     negative rho (up, down):  6.673E-05 0.000E+00

     total cpu time spent up to now is     4331.7 secs

     total energy              =  -12556.52124049 Ry
     Harris-Foulkes estimate   =  -12556.53227856 Ry
     estimated scf accuracy    <       0.11981408 Ry

     iteration # 14     ecut=    30.00 Ry     beta= 0.40
     Davidson diagonalization with overlap
     c_bands:  1 eigenvalues not converged
     ethr =  3.53E-06,  avg # of iterations = 13.8

     negative rho (up, down):  6.350E-05 0.000E+00

     total cpu time spent up to now is     4762.9 secs

     total energy              =  -12556.52532606 Ry
     Harris-Foulkes estimate   =  -12556.52834007 Ry
     estimated scf accuracy    <       0.01309304 Ry

     iteration # 15     ecut=    30.00 Ry     beta= 0.40
     Davidson diagonalization with overlap
     ethr =  1.53E-06,  avg # of iterations = 12.5

     negative rho (up, down):  6.150E-05 0.000E+00

     total cpu time spent up to now is     5159.9 secs

     total energy              =  -12556.52500435 Ry
     Harris-Foulkes estimate   =  -12556.52832264 Ry
     estimated scf accuracy    <       0.03272975 Ry

     iteration # 16     ecut=    30.00 Ry     beta= 0.40
     Davidson diagonalization with overlap
     ethr =  1.53E-06,  avg # of iterations = 14.0

     negative rho (up, down):  7.284E-05 0.000E+00

     total cpu time spent up to now is     5553.7 secs

     total energy              =  -12556.52653051 Ry
     Harris-Foulkes estimate   =  -12556.52713408 Ry
     estimated scf accuracy    <       0.00636604 Ry

     iteration # 17     ecut=    30.00 Ry     beta= 0.40
     Davidson diagonalization with overlap
     ethr =  7.45E-07,  avg # of iterations =  4.2

     negative rho (up, down):  7.744E-05 0.000E+00

     total cpu time spent up to now is     5732.8 secs

     total energy              =  -12556.52685468 Ry
     Harris-Foulkes estimate   =  -12556.52689180 Ry
     estimated scf accuracy    <       0.00020279 Ry

     iteration # 18     ecut=    30.00 Ry     beta= 0.40
     Davidson diagonalization with overlap
     ethr =  2.37E-08,  avg # of iterations =  6.0

     negative rho (up, down):  8.104E-05 0.000E+00

     total cpu time spent up to now is     6023.2 secs

     total energy              =  -12556.52687316 Ry
     Harris-Foulkes estimate   =  -12556.52691854 Ry
     estimated scf accuracy    <       0.00025007 Ry

     iteration # 19     ecut=    30.00 Ry     beta= 0.40
     Davidson diagonalization with overlap
     ethr =  2.37E-08,  avg # of iterations =  2.0

     negative rho (up, down):  8.302E-05 0.000E+00

     total cpu time spent up to now is     6160.5 secs

     total energy              =  -12556.52689674 Ry
     Harris-Foulkes estimate   =  -12556.52690169 Ry
     estimated scf accuracy    <       0.00002949 Ry

     iteration # 20     ecut=    30.00 Ry     beta= 0.40
     Davidson diagonalization with overlap
     ethr =  3.45E-09,  avg # of iterations =  2.5

     negative rho (up, down):  8.576E-05 0.000E+00

     total cpu time spent up to now is     6317.4 secs

     End of self-consistent calculation

          k = 0.0000 0.0000 0.0000 ( 31457 PWs)   bands (ev):

   -49.2547 -49.2462 -49.1880 -49.0558 -49.0462 -49.0427 -49.0225 -49.0178
   -48.9159 -48.8717 -48.8584 -48.8516 -48.8431 -48.8369 -48.7908 -48.7789
   -48.7670 -48.7594 -48.7193 -48.6825 -48.6817 -48.6685 -48.3253 -48.2544
   -25.6349 -25.6269 -25.5573 -25.5287 -25.5209 -25.4588 -25.4550 -25.4533
   -25.4330 -25.3767 -25.3701 -25.3699 -25.3647 -25.3391 -25.3362 -25.3327
   -25.3152 -25.2917 -25.2911 -25.2848 -25.2739 -25.2700 -25.2613 -25.2609
   -25.2551 -25.2307 -25.2178 -25.2127 -25.2119 -25.1724 -25.1562 -25.1538
   -25.1503 -25.1433 -25.1377 -25.1312 -25.1155 -25.1008 -25.0985 -25.0882
   -25.0622 -25.0549 -25.0525 -25.0510 -25.0410 -25.0102 -24.9900 -24.9648
   -24.9621 -24.9536 -24.9457 -24.9422 -24.9418 -24.9405 -24.9335 -24.9029
   -24.9021 -24.8879 -24.8875 -24.8791 -24.8524 -24.8486 -24.8300 -24.8282
   -24.8159 -24.8099 -24.7681 -24.7430 -24.5533 -24.5122 -24.4650 -24.4121
   -22.4524 -22.4497 -22.2654 -22.2637 -22.1247 -22.1107 -22.0563 -22.0234
   -22.0090 -21.9979 -21.9662 -21.9342 -21.9328 -21.8317 -21.7521 -12.1986
   -12.1919 -12.1029 -11.9829 -11.7618 -11.7568 -11.6290 -11.5818 -11.5758
   -11.5053 -11.4260 -11.3433 -11.3358 -11.3130 -11.2755 -11.2660 -11.2073
   -11.1749 -11.1317 -11.1249 -11.1088 -11.0286 -11.0096 -10.9547 -10.9482
   -10.8853 -10.8403 -10.8224 -10.8158 -10.7430 -10.7369 -10.7315 -10.7087
   -10.6997 -10.6208 -10.6156 -10.6034 -10.5937 -10.5913 -10.5802 -10.5049
   -10.5025 -10.4965 -10.4956 -10.4844 -10.4592 -10.3823 -10.3580 -10.3297
   -10.3280 -10.2913 -10.2593 -10.2289 -10.1375 -10.1283 -10.1161 -10.1138
   -10.0537 -10.0294 -10.0225 -10.0100 -10.0061  -9.9679  -9.8584  -9.7203
    -9.6583  -9.6463  -9.5909  -6.0230  -6.0009  -5.9688  -5.9601  -5.9269
    -5.8865  -5.7891  -5.7783  -5.7658  -5.7420  -5.7324  -5.7167  -5.7115
    -5.6769  -5.6766  -5.6263  -5.6125  -5.5981  -5.5879  -5.5820  -5.5632
    -5.5579  -5.5419  -5.5344  -5.5332  -5.5201  -5.5179  -5.5017  -5.4964
    -5.4847  -5.4511  -5.4474  -5.4416  -5.4411  -5.4317  -5.4173  -5.4141
    -5.4099  -5.3823  -5.3346  -5.3091  -5.2840  -5.2281  -5.1993  -5.1862
     0.2295   0.2367   0.3205   0.3947   0.4018   0.4664   0.4951   0.5761
     0.5817   0.5982   0.7445   0.7995   0.8073   0.8626   0.9425   0.9877
     0.9940   1.0595   1.0741   1.0975   1.1506   1.1822   1.2678   1.2710
     1.2843   1.3285   1.3837   1.4018   1.4332   1.4994   1.5211   1.5226
     1.5335   1.6098   1.6279   1.6404   1.6680   1.6892   1.6961   1.7710
     1.7913   1.8353   1.9155   1.9165   1.9246   1.9977   2.0269   2.0490
     2.0838   2.1001   2.1334   2.1493   2.1745   2.1991   2.2083   2.2121
     2.2331   2.2487   2.3017   2.3152   2.3253   2.3296   2.3422   2.3593
     2.3620   2.4095   2.4578   2.4982   2.5118   2.5395   2.5515   2.5843
     2.6262   2.6473   2.6556   2.7202   2.7501   2.7680   2.8059   2.8178
     2.8860   2.9255   2.9601   2.9724   2.9870   2.9975   3.0193   3.0456
     3.0959   3.1052   3.1189   3.1339   3.1542   3.1807   3.1950   3.2596
     3.2878   3.3029   3.3166   3.3386   3.3882   3.4315   3.4436   3.4581
     3.4670   3.4876   3.4912   3.5431   3.5809   3.5913   3.6186   3.6547
     3.6908   3.7165   3.7341   3.7513   3.7654   3.8028   3.8255   3.8447
     3.8559   3.8894   3.9104   3.9196   3.9346   3.9430   3.9838   3.9957
     4.0081   4.0264   4.0279   4.0567   4.0703   4.0876   4.0904   4.1050
     4.1121   4.1291   4.1718   4.1845   4.1946   4.2135   4.2194   4.2599
     4.2900   4.3130   4.3204   4.3391   4.3473   4.3615   4.3687   4.3964
     4.4113   4.4419   4.4656   4.5001   4.5100   4.5271   4.5622   4.5944
     4.6017   4.6223   4.6331   4.6504   4.6620   4.6673   4.6963   4.7054
     4.7146   4.7336   4.7424   4.7520   4.7861   4.8011   4.8146   4.8510
     4.8807   4.8992   4.9128   4.9510   4.9685   4.9850   5.0068   5.0323
     5.0443   5.0675   5.0773   5.0846   5.1130   5.1257   5.1310   5.1365
     5.1402   5.2019   5.2411   5.2795   5.2820   5.2958   5.3121   5.4222
     5.4460   5.5195   5.5661   5.5832   8.2226   8.2358   8.3590   8.4630
     8.4928   8.5269   8.6506   8.7964   8.9891   9.0075   9.0095   9.0219
     9.0830   9.1562   9.2321   9.2849   9.2974   9.3677   9.4104   9.4418
     9.5473   9.5618   9.6906   9.8106   9.8344   9.8544   9.9266   9.9350
     9.9530   9.9598   9.9664  10.0149  10.0615  10.0982  10.1013  10.1372
    10.1804  10.1976  10.2394  10.2603  10.3008  10.3471  10.3549  10.3759
    10.3943  10.4545  10.4837  10.4937  10.5011  10.5224  10.5296  10.5671
    10.5868  10.5929  10.6281  10.6588  10.6644  10.6831  10.7070  10.7576
    10.8180  10.8283  10.8784  10.8907  10.9060  10.9978  11.0156  11.0781
    11.1062  11.1529  11.1642  11.1708  11.2385  11.4302  11.5043  11.5898
    11.6661  11.7284  11.8041  11.9017  11.9642  12.0030  12.0278  12.1917
    12.2542  12.2905

          k = 0.0000 0.0000-0.6060 ( 31394 PWs)   bands (ev):

   -49.2545 -49.2461 -49.1879 -49.0557 -49.0463 -49.0427 -49.0224 -49.0177
   -48.9158 -48.8702 -48.8564 -48.8529 -48.8450 -48.8364 -48.7903 -48.7792
   -48.7672 -48.7594 -48.7196 -48.6825 -48.6817 -48.6685 -48.3253 -48.2544
   -25.6293 -25.6213 -25.5532 -25.5262 -25.5183 -25.4574 -25.4539 -25.4514
   -25.4282 -25.3834 -25.3763 -25.3656 -25.3609 -25.3278 -25.3259 -25.3211
   -25.3135 -25.2933 -25.2851 -25.2791 -25.2663 -25.2620 -25.2516 -25.2480
   -25.2425 -25.2150 -25.2124 -25.2100 -25.2075 -25.1742 -25.1581 -25.1533
   -25.1524 -25.1470 -25.1404 -25.1403 -25.1144 -25.1108 -25.1007 -25.0862
   -25.0729 -25.0726 -25.0601 -25.0422 -25.0410 -25.0204 -24.9948 -24.9719
   -24.9652 -24.9548 -24.9484 -24.9481 -24.9479 -24.9432 -24.9415 -24.9088
   -24.9009 -24.8941 -24.8890 -24.8788 -24.8527 -24.8496 -24.8375 -24.8347
   -24.8155 -24.8106 -24.7746 -24.7429 -24.5530 -24.5203 -24.4647 -24.4206
   -22.4511 -22.4497 -22.2656 -22.2643 -22.1235 -22.1096 -22.0538 -22.0244
   -22.0114 -21.9988 -21.9623 -21.9379 -21.9317 -21.8326 -21.7521 -12.1110
   -12.1042 -12.0209 -11.8970 -11.7091 -11.7055 -11.6311 -11.6242 -11.5531
   -11.4878 -11.4525 -11.3544 -11.3185 -11.3086 -11.2503 -11.1826 -11.1769
   -11.1743 -11.0993 -11.0954 -11.0470 -10.9669 -10.9586 -10.9536 -10.9193
   -10.8845 -10.8756 -10.8558 -10.8483 -10.8291 -10.7881 -10.7538 -10.7395
   -10.7312 -10.7273 -10.6562 -10.6375 -10.6318 -10.6124 -10.6024 -10.5848
   -10.5127 -10.5039 -10.4912 -10.4850 -10.4782 -10.4678 -10.3926 -10.3796
   -10.3370 -10.3324 -10.2833 -10.2305 -10.1545 -10.1281 -10.1264 -10.0984
   -10.0420 -10.0401 -10.0296 -10.0098 -10.0062  -9.9665  -9.8914  -9.7191
    -9.6597  -9.6416  -9.5966  -6.0206  -6.0196  -5.9451  -5.9444  -5.9055
    -5.9045  -5.7945  -5.7935  -5.7525  -5.7513  -5.7007  -5.6936  -5.6928
    -5.6858  -5.6363  -5.6238  -5.6097  -5.6079  -5.5911  -5.5714  -5.5650
    -5.5525  -5.5401  -5.5362  -5.5351  -5.5213  -5.5091  -5.5089  -5.5040
    -5.4968  -5.4579  -5.4561  -5.4471  -5.4358  -5.4336  -5.4122  -5.4103
    -5.4059  -5.3625  -5.3285  -5.3196  -5.2878  -5.2206  -5.1966  -5.1947
     0.2404   0.2468   0.3282   0.4746   0.5019   0.5103   0.5902   0.6077
     0.6112   0.6807   0.8089   0.8354   0.8408   0.9273   0.9425   0.9498
     0.9800   0.9902   0.9929   1.0667   1.1168   1.1385   1.2013   1.2268
     1.2338   1.3059   1.3116   1.3135   1.3561   1.4561   1.4640   1.4749
     1.4812   1.5338   1.5421   1.5907   1.6104   1.6451   1.6498   1.6830
     1.7255   1.7415   1.7491   1.8076   1.8298   1.8630   1.9047   1.9124
     1.9619   1.9968   2.0009   2.0030   2.0531   2.1615   2.1759   2.2101
     2.2182   2.3081   2.3150   2.3298   2.3604   2.4035   2.4094   2.4869
     2.5034   2.5684   2.5850   2.6051   2.6160   2.6162   2.6282   2.7073
     2.7245   2.7317   2.7393   2.8085   2.8494   2.8616   2.8688   2.8734
     2.8860   2.8908   2.9583   3.0371   3.0554   3.0771   3.1133   3.1187
     3.1596   3.2033   3.2126   3.2191   3.2690   3.2763   3.2890   3.3300
     3.3335   3.3832   3.4214   3.4323   3.4418   3.4607   3.5392   3.5834
     3.5873   3.5973   3.6086   3.6524   3.6632   3.6728   3.6816   3.7112
     3.7181   3.7269   3.7385   3.7592   3.7610   3.8291   3.8456   3.8777
     3.8861   3.9002   3.9161   3.9293   3.9589   3.9725   3.9768   3.9872
     4.0072   4.0287   4.0420   4.0542   4.0781   4.1059   4.1204   4.1340
     4.1688   4.1921   4.1979   4.2035   4.2278   4.2476   4.2500   4.2664
     4.3217   4.3312   4.3538   4.3565   4.3608   4.3744   4.3933   4.4007
     4.4110   4.4529   4.4586   4.4667   4.5021   4.5295   4.5378   4.5474
     4.5517   4.5614   4.5789   4.5902   4.6163   4.6340   4.6386   4.6468
     4.6836   4.7028   4.7204   4.7294   4.7316   4.7602   4.7951   4.8027
     4.8113   4.8654   4.8819   4.9016   4.9094   4.9154   4.9348   4.9729
     4.9798   5.0219   5.0346   5.0667   5.0849   5.1191   5.1240   5.1258
     5.1497   5.1502   5.1629   5.1876   5.2730   5.2780   5.2967   5.4405
     5.4824   5.5127   5.5364   5.5942   8.3894   8.3961   8.5092   8.6447
     8.6492   8.6926   8.8539   8.9766   8.9862   9.0376   9.0674   9.1675
     9.1698   9.1823   9.2561   9.2752   9.2829   9.3361   9.3793   9.3886
     9.3917   9.4839   9.5862   9.5879   9.5914   9.6988   9.7041   9.7114
     9.8068   9.8132   9.8216   9.8353   9.9613   9.9694   9.9733   9.9819
     9.9930  10.1247  10.1249  10.2039  10.2058  10.2084  10.2153  10.2414
    10.3161  10.3670  10.3784  10.4088  10.4121  10.4238  10.4300  10.4514
    10.5243  10.5461  10.5858  10.6599  10.6753  10.6882  10.7166  10.7235
    10.8637  10.9256  10.9288  10.9348  10.9817  11.0433  11.2142  11.2892
    11.2940  11.3116  11.3766  11.3938  11.4518  11.4634  11.5360  11.5955
    11.6792  11.7121  11.7942  11.8315  11.9406  12.0081  12.0113  12.0247
    12.1847  12.1934

          k =-0.5000 0.0000 0.0000 ( 31506 PWs)   bands (ev):

   -49.2547 -49.2462 -49.1880 -49.0558 -49.0462 -49.0427 -49.0225 -49.0179
   -48.9159 -48.8717 -48.8585 -48.8516 -48.8431 -48.8369 -48.7908 -48.7789
   -48.7671 -48.7594 -48.7193 -48.6825 -48.6817 -48.6685 -48.3254 -48.2544
   -25.6272 -25.6191 -25.5489 -25.5082 -25.5006 -25.4552 -25.4511 -25.4344
   -25.4247 -25.3840 -25.3774 -25.3737 -25.3670 -25.3520 -25.3475 -25.3383
   -25.2985 -25.2936 -25.2929 -25.2861 -25.2753 -25.2679 -25.2625 -25.2502
   -25.2459 -25.2361 -25.2214 -25.2166 -25.2163 -25.1746 -25.1562 -25.1532
   -25.1504 -25.1455 -25.1375 -25.1309 -25.1212 -25.1100 -25.0998 -25.0904
   -25.0668 -25.0557 -25.0516 -25.0492 -25.0375 -25.0193 -24.9771 -24.9640
   -24.9626 -24.9616 -24.9547 -24.9543 -24.9441 -24.9440 -24.9428 -24.9011
   -24.9008 -24.8883 -24.8880 -24.8593 -24.8485 -24.8445 -24.8305 -24.8296
   -24.8275 -24.8102 -24.7734 -24.7535 -24.5624 -24.5121 -24.4751 -24.4122
   -22.4513 -22.4500 -22.2655 -22.2642 -22.1246 -22.1106 -22.0562 -22.0233
   -22.0090 -21.9978 -21.9661 -21.9341 -21.9325 -21.8317 -21.7525 -12.0245
   -12.0174 -11.9289 -11.8337 -11.6159 -11.6087 -11.5189 -11.5176 -11.5140
   -11.4097 -11.3617 -11.2832 -11.2783 -11.2140 -11.1955 -11.1891 -11.1550
   -11.1471 -11.1453 -11.1066 -11.0994 -11.0908 -11.0643 -11.0274 -10.9956
   -10.9916 -10.9814 -10.9798 -10.9352 -10.9304 -10.9293 -10.8392 -10.8037
   -10.7740 -10.7318 -10.7249 -10.6267 -10.6250 -10.6045 -10.6020 -10.5565
   -10.5426 -10.5291 -10.4987 -10.4841 -10.4754 -10.4714 -10.4263 -10.3591
   -10.3295 -10.3118 -10.3077 -10.2613 -10.1374 -10.1267 -10.1251 -10.1151
   -10.0420 -10.0398 -10.0314 -10.0127 -10.0084  -9.9725  -9.8601  -9.7251
    -9.6659  -9.6322  -9.5983  -6.0082  -6.0071  -5.9693  -5.9684  -5.8812
    -5.8800  -5.7886  -5.7877  -5.7594  -5.7582  -5.7298  -5.7148  -5.7133
    -5.7114  -5.6744  -5.6264  -5.6126  -5.5966  -5.5859  -5.5807  -5.5615
    -5.5573  -5.5400  -5.5331  -5.5321  -5.5198  -5.5173  -5.5046  -5.4946
    -5.4827  -5.4519  -5.4447  -5.4417  -5.4391  -5.4313  -5.4153  -5.4116
    -5.3925  -5.3761  -5.3329  -5.3051  -5.2954  -5.2246  -5.2186  -5.1938
     0.2994   0.3064   0.3964   0.5106   0.6449   0.6520   0.7367   0.7681
     0.7727   0.8524   0.8696   0.8742   0.9030   1.0250   1.0294   1.0368
     1.0676   1.0930   1.0986   1.1659   1.1712   1.2421   1.2477   1.2506
     1.2845   1.3827   1.4026   1.4109   1.4217   1.5116   1.5518   1.5583
     1.5645   1.6221   1.6293   1.6498   1.6935   1.7095   1.7182   1.7253
     1.7835   1.7889   1.8313   1.8567   1.8779   1.9256   1.9975   2.0318
     2.0388   2.0798   2.0854   2.0886   2.1476   2.1542   2.1735   2.1849
     2.1945   2.2516   2.3015   2.3037   2.3524   2.3765   2.3784   2.4035
     2.4284   2.4328   2.4421   2.5242   2.5574   2.6150   2.6187   2.6478
     2.6524   2.6614   2.7065   2.7608   2.7839   2.8172   2.8231   2.8292
     2.8849   2.8904   2.9123   2.9176   2.9356   2.9571   2.9912   3.0014
     3.0047   3.0077   3.0524   3.0578   3.0811   3.1094   3.1504   3.1698
     3.2072   3.2432   3.2484   3.2576   3.3268   3.3282   3.3659   3.3733
     3.3777   3.3901   3.4553   3.5136   3.5154   3.5528   3.5718   3.5801
     3.6012   3.6375   3.6558   3.6901   3.7482   3.7499   3.7603   3.7823
     3.7884   3.7926   3.8083   3.8442   3.8572   3.8622   3.8886   3.9523
     3.9766   3.9822   4.0100   4.0168   4.0175   4.0247   4.0625   4.0689
     4.0851   4.1164   4.1526   4.2094   4.2131   4.2662   4.2748   4.3050
     4.3055   4.3086   4.3448   4.3655   4.3760   4.3822   4.4420   4.4827
     4.5021   4.5268   4.5364   4.5817   4.5850   4.5877   4.6155   4.6356
     4.6403   4.6571   4.6807   4.6868   4.6897   4.7346   4.7693   4.7770
     4.7814   4.8060   4.8384   4.8421   4.8519   4.8547   4.8810   4.8854
     4.8985   4.9087   4.9252   4.9399   4.9453   4.9654   4.9760   4.9951
     5.0333   5.0365   5.0757   5.0830   5.0888   5.0982   5.1221   5.1242
     5.1412   5.1625   5.2051   5.2275   5.2318   5.2746   5.3411   5.3768
     5.4152   5.4491   5.5048   5.5750   8.4534   8.4593   8.6267   8.7022
     8.7083   8.7706   8.8211   8.9326   8.9402   8.9750   9.0667   9.0793
     9.0866   9.1689   9.1833   9.1965   9.2024   9.2847   9.3034   9.3087
     9.3430   9.4478   9.4579   9.5063   9.5182   9.5945   9.6194   9.6213
     9.6256   9.6979   9.7256   9.7314   9.7898   9.9064   9.9323   9.9387
     9.9707  10.0945  10.0956  10.1185  10.1228  10.1965  10.2783  10.2852
    10.3082  10.3805  10.3892  10.4195  10.4372  10.4585  10.4733  10.4848
    10.5273  10.5414  10.5501  10.5570  10.5693  10.5727  10.5798  10.6542
    10.6613  10.7790  10.7803  10.7828  10.8589  10.9276  10.9457  10.9552
    11.0540  11.1146  11.1860  11.2496  11.3948  11.4025  11.4455  11.4650
    11.8056  11.8119  12.0332  12.0541  12.1166  12.1806  12.2347  12.3901
    12.4283  12.4427

          k =-0.5000 0.0000-0.6060 ( 31516 PWs)   bands (ev):

   -49.2546 -49.2461 -49.1880 -49.0558 -49.0463 -49.0428 -49.0225 -49.0178
   -48.9159 -48.8703 -48.8565 -48.8530 -48.8451 -48.8365 -48.7904 -48.7792
   -48.7672 -48.7594 -48.7196 -48.6825 -48.6818 -48.6686 -48.3254 -48.2545
   -25.6204 -25.6123 -25.5438 -25.5066 -25.4990 -25.4539 -25.4501 -25.4332
   -25.4187 -25.3847 -25.3775 -25.3752 -25.3690 -25.3474 -25.3429 -25.3283
   -25.2973 -25.2947 -25.2798 -25.2731 -25.2729 -25.2565 -25.2524 -25.2466
   -25.2412 -25.2214 -25.2140 -25.2090 -25.2075 -25.1749 -25.1576 -25.1539
   -25.1517 -25.1489 -25.1461 -25.1424 -25.1171 -25.1114 -25.1019 -25.0866
   -25.0762 -25.0730 -25.0607 -25.0424 -25.0387 -25.0187 -24.9847 -24.9743
   -24.9733 -24.9673 -24.9669 -24.9559 -24.9473 -24.9461 -24.9442 -24.9057
   -24.9053 -24.8896 -24.8867 -24.8616 -24.8499 -24.8471 -24.8359 -24.8324
   -24.8314 -24.8104 -24.7777 -24.7564 -24.5620 -24.5203 -24.4747 -24.4208
   -22.4508 -22.4494 -22.2660 -22.2646 -22.1234 -22.1095 -22.0537 -22.0243
   -22.0113 -21.9987 -21.9622 -21.9379 -21.9314 -21.8326 -21.7524 -11.8997
   -11.8926 -11.8070 -11.7135 -11.5724 -11.5650 -11.4787 -11.4381 -11.4338
   -11.3779 -11.2781 -11.2736 -11.2717 -11.2696 -11.2649 -11.1996 -11.1950
   -11.1929 -11.1899 -11.1656 -11.1298 -11.1240 -11.1019 -11.0405 -11.0114
   -11.0077 -10.9994 -10.9718 -10.8994 -10.8975 -10.8936 -10.8501 -10.8348
   -10.8234 -10.7593 -10.7485 -10.7079 -10.6437 -10.6253 -10.6083 -10.5980
   -10.5732 -10.5616 -10.5205 -10.5178 -10.4936 -10.4721 -10.4515 -10.4444
   -10.3462 -10.3391 -10.3235 -10.2799 -10.1566 -10.1395 -10.1221 -10.0966
   -10.0476 -10.0423 -10.0321 -10.0131 -10.0093  -9.9707  -9.8935  -9.7257
    -9.6604  -9.6418  -9.5983  -6.0180  -6.0101  -5.9524  -5.9448  -5.8881
    -5.8800  -5.7967  -5.7913  -5.7706  -5.7506  -5.7260  -5.6986  -5.6947
    -5.6831  -5.6331  -5.6240  -5.6101  -5.6076  -5.5905  -5.5716  -5.5642
    -5.5529  -5.5395  -5.5343  -5.5314  -5.5214  -5.5099  -5.5088  -5.5058
    -5.4956  -5.4584  -5.4530  -5.4463  -5.4350  -5.4335  -5.4099  -5.4053
    -5.3858  -5.3647  -5.3269  -5.3196  -5.2964  -5.2317  -5.2131  -5.1887
     0.3900   0.3979   0.4794   0.5856   0.6294   0.6365   0.7329   0.8311
     0.8372   0.8534   0.8633   0.8680   0.8966   0.9047   0.9806   1.0280
     1.0628   1.0878   1.0956   1.1021   1.1317   1.1456   1.1503   1.1921
     1.2324   1.3053   1.3675   1.3735   1.3849   1.4320   1.4416   1.4576
     1.5389   1.5474   1.6537   1.6874   1.7224   1.7294   1.7570   1.7674
     1.8501   1.8536   1.8648   1.8830   1.8885   1.8968   1.9638   1.9689
     2.0113   2.0316   2.0624   2.0838   2.1068   2.1633   2.1665   2.1762
     2.2175   2.2222   2.2315   2.2864   2.2935   2.3129   2.3235   2.3818
     2.4156   2.4241   2.4552   2.4839   2.5307   2.5824   2.5903   2.6083
     2.6161   2.6240   2.6420   2.7148   2.7287   2.7660   2.7918   2.8147
     2.8828   2.8967   2.9012   2.9185   3.0054   3.0427   3.0585   3.0675
     3.0692   3.0757   3.0760   3.2000   3.2176   3.2258   3.2436   3.3025
     3.3103   3.3420   3.3504   3.3778   3.3899   3.4073   3.4247   3.4358
     3.4697   3.4751   3.5094   3.5259   3.5429   3.5940   3.6335   3.6681
     3.6829   3.6871   3.7054   3.7588   3.7779   3.7933   3.8116   3.8209
     3.8322   3.8335   3.8778   3.9097   3.9117   3.9357   3.9640   3.9823
     4.0346   4.0654   4.0783   4.1078   4.1121   4.1314   4.1388   4.1493
     4.1638   4.1843   4.1887   4.2130   4.2377   4.2649   4.2761   4.2896
     4.3006   4.3121   4.3252   4.3410   4.3666   4.3898   4.4191   4.4474
     4.4564   4.4771   4.5018   4.5262   4.5565   4.5667   4.5723   4.5809
     4.5888   4.5937   4.6364   4.6485   4.6665   4.6875   4.7064   4.7246
     4.7326   4.7500   4.7894   4.7963   4.8154   4.8331   4.8698   4.8831
     4.8931   4.8976   4.9115   4.9121   4.9238   4.9363   4.9431   4.9777
     4.9917   5.0201   5.0410   5.0553   5.0657   5.0898   5.1035   5.1128
     5.1417   5.1696   5.1979   5.2178   5.2250   5.2290   5.2487   5.3627
     5.3969   5.4608   5.4988   5.5871   8.6881   8.6961   8.8009   8.8077
     8.8415   8.9277   8.9453   8.9553   9.0261   9.0491   9.0948   9.0958
     9.1035   9.1756   9.1911   9.2077   9.2152   9.2242   9.2398   9.3165
     9.3352   9.3507   9.4224   9.4287   9.4514   9.4589   9.4735   9.4878
     9.6062   9.6974   9.7043   9.7059   9.7138   9.8462   9.8562   9.8594
     9.8828   9.8891   9.8934   9.9922  10.0042  10.0162  10.0245  10.0510
    10.1317  10.1504  10.1658  10.1736  10.1945  10.2695  10.3179  10.3554
    10.3738  10.4180  10.4410  10.4884  10.5043  10.5447  10.5945  10.6036
    10.6160  10.7146  10.7621  10.7741  10.9507  11.0020  11.0180  11.0743
    11.1399  11.1628  11.2988  11.3863  11.6575  11.6725  11.7679  11.7916
    11.7991  11.8278  11.8422  11.9252  12.1254  12.1631  12.2048  12.2484
    12.2576  12.3152

     the Fermi energy is     7.0014 ev

!    total energy              =  -12556.52689426 Ry
     Harris-Foulkes estimate   =  -12556.52690142 Ry
     estimated scf accuracy    <       0.00001000 Ry

     total all-electron energy =   -211663.663684 Ry

     The total energy is the sum of the following terms:

     one-electron contribution =   -3480.41017360 Ry
     hartree contribution      =    2147.06620369 Ry
     xc contribution           =   -1368.21996134 Ry
     ewald contribution        =   -3371.62149276 Ry
     one-center paw contrib.   =   -6482.79709285 Ry
     smearing contrib. (-TS)   =      -0.54437740 Ry

     convergence has been achieved in  20 iterations

     negative rho (up, down):  8.576E-05 0.000E+00

     Forces acting on atoms (cartesian axes, Ry/au):

     atom    1 type  1   force =    -0.05461410   -0.10565025   -0.01867207
     atom    2 type  1   force =    -0.03560253    0.14329595    0.02908667
     atom    3 type  1   force =    -0.02456970    0.09658716   -0.01831178
     atom    4 type  1   force =    -0.03565002   -0.14466269    0.02824292
     atom    5 type  1   force =    -0.03600093   -0.12818920   -0.00725866
     atom    6 type  1   force =    -0.01304023    0.14735423    0.01178193
     atom    7 type  1   force =    -0.03610318    0.12612801   -0.00926441
     atom    8 type  1   force =    -0.04339052   -0.15660018    0.01031704
     atom    9 type  1   force =    -0.01487109    0.02203763    0.05021114
     atom   10 type  1   force =     0.00207240    0.02393853   -0.06266054
     atom   11 type  1   force =     0.00294778    0.00883837    0.06126346
     atom   12 type  1   force =     0.00204118   -0.02499204   -0.06271659
     atom   13 type  1   force =     0.01046960    0.00982799   -0.00059396
     atom   14 type  1   force =     0.03055784    0.03005956   -0.01697946
     atom   15 type  1   force =     0.01056071   -0.00808831   -0.00054960
     atom   16 type  1   force =     0.01020873   -0.00041640   -0.00210448
     atom   17 type  1   force =    -0.12052605   -0.01530739   -0.04466750
     atom   18 type  1   force =    -0.12493221    0.02393410    0.04482078
     atom   19 type  1   force =    -0.12226267    0.01752264   -0.04211485
     atom   20 type  1   force =    -0.12454831   -0.02358440    0.04334446
     atom   21 type  1   force =     0.03371290   -0.06603337    0.01549793
     atom   22 type  1   force =     0.03509086    0.07610751   -0.01573422
     atom   23 type  1   force =     0.03431195    0.07188900    0.01391216
     atom   24 type  1   force =     0.03528671   -0.07632541   -0.01408289
     atom   25 type  2   force =     0.00118397    0.00005727   -0.00091544
     atom   26 type  2   force =     0.00180644    0.00014315    0.00030819
     atom   27 type  2   force =     0.00204039   -0.01463444    0.00124499
     atom   28 type  2   force =     0.00180708   -0.00029065    0.00034080
     atom   29 type  2   force =     0.00000787   -0.00559672   -0.00118292
     atom   30 type  2   force =     0.00027452   -0.00892452    0.00107132
     atom   31 type  2   force =    -0.00002812    0.00528889   -0.00134558
     atom   32 type  2   force =     0.00543270    0.00267949   -0.00131601
     atom   33 type  2   force =     0.00569386    0.00178605    0.00174393
     atom   34 type  2   force =     0.00547305   -0.00018368   -0.00185344
     atom   35 type  2   force =     0.00556767   -0.00129318    0.00166999
     atom   36 type  2   force =     0.01258072   -0.00337770   -0.00002973
     atom   37 type  2   force =     0.01284607    0.00604881   -0.00017991
     atom   38 type  2   force =     0.01269083    0.00482437   -0.00001050
     atom   39 type  2   force =     0.01274747   -0.00507544    0.00008174
     atom   40 type  3   force =     0.02139386    0.13068061    0.03842418
     atom   41 type  3   force =     0.01464310   -0.14418013   -0.05096854
     atom   42 type  3   force =     0.00190756   -0.11172751    0.04658216
     atom   43 type  3   force =     0.01479768    0.14419409   -0.05074527
     atom   44 type  3   force =    -0.00841904   -0.06901150   -0.00063492
     atom   45 type  3   force =     0.00104762    0.06439694   -0.01093506
     atom   46 type  3   force =     0.01048549    0.08774376    0.00847624
     atom   47 type  3   force =     0.00101095   -0.06432780   -0.01076518
     atom   48 type  3   force =    -0.01337515    0.02947646   -0.03370123
     atom   49 type  3   force =    -0.02031167   -0.04490831    0.04019611
     atom   50 type  3   force =    -0.02031800   -0.03924737   -0.03409964
     atom   51 type  3   force =    -0.02025118    0.04465341    0.04042898
     atom   52 type  3   force =    -0.02831291   -0.02461863   -0.00815164
     atom   53 type  3   force =    -0.02097546    0.00739506    0.01762791
     atom   54 type  3   force =    -0.02036725    0.01352517   -0.01068236
     atom   55 type  3   force =    -0.02105528   -0.00820396    0.01759871
     atom   56 type  3   force =     0.00791931   -0.02417236   -0.00043385
     atom   57 type  3   force =     0.00400986    0.01432645   -0.00058103
     atom   58 type  3   force =     0.00532289    0.01907509    0.00084572
     atom   59 type  3   force =     0.00411968   -0.01436751   -0.00118063
     atom   60 type  3   force =    -0.07519700    0.00556912   -0.03226543
     atom   61 type  3   force =    -0.07326385   -0.01285097    0.03181995
     atom   62 type  3   force =    -0.07320908   -0.01003285   -0.03181150
     atom   63 type  3   force =    -0.07287171    0.01274897    0.03217563
     atom   64 type  3   force =     0.00303459    0.00197748   -0.02629840
     atom   65 type  3   force =    -0.00756483   -0.02057575    0.03419707
     atom   66 type  3   force =    -0.00962076   -0.00952933   -0.04244151
     atom   67 type  3   force =    -0.00755951    0.02089101    0.03471019
     atom   68 type  3   force =    -0.01210233   -0.11822092    0.01002781
     atom   69 type  3   force =    -0.00311320    0.10698497    0.00220638
     atom   70 type  3   force =     0.00010092    0.11516982   -0.00343581
     atom   71 type  3   force =    -0.00341969   -0.10682613    0.00211123
     atom   72 type  3   force =    -0.02173431   -0.03703704   -0.02056584
     atom   73 type  3   force =    -0.02390578    0.03148425    0.02155289
     atom   74 type  3   force =    -0.02293965    0.03782436   -0.02315631
     atom   75 type  3   force =    -0.02391280   -0.03202370    0.02174871
     atom   76 type  3   force =     0.09869929    0.06772264    0.01749524
     atom   77 type  3   force =     0.10249716   -0.07461066   -0.01610366
     atom   78 type  3   force =     0.10119985   -0.06885846    0.01563870
     atom   79 type  3   force =     0.10289474    0.07386173   -0.01654430
     atom   80 type  3   force =    -0.00198446   -0.01097074   -0.02069600
     atom   81 type  3   force =    -0.00286123    0.00593036    0.02203164
     atom   82 type  3   force =    -0.00200321    0.00736111   -0.02238965
     atom   83 type  3   force =    -0.00298785   -0.00517316    0.02239367
     atom   84 type  3   force =     0.00306297    0.01387863    0.01170510
     atom   85 type  3   force =     0.00554556   -0.02517474   -0.01026732
     atom   86 type  3   force =     0.00396600   -0.02449365    0.01061697
     atom   87 type  3   force =     0.00560875    0.02615969   -0.01065965
     atom   88 type  3   force =     0.01483805    0.04173342    0.00015950
     atom   89 type  3   force =     0.01542984   -0.04493535   -0.00110610
     atom   90 type  3   force =     0.01536712   -0.04315006   -0.00017613
     atom   91 type  3   force =     0.01573823    0.04459095   -0.00088016
     atom   92 type  3   force =    -0.00305212   -0.01027533   -0.01181763
     atom   93 type  3   force =     0.00500029    0.00140913    0.00552241
     atom   94 type  3   force =     0.00197005    0.00559283   -0.00379503
     atom   95 type  3   force =     0.00495100   -0.00142592    0.00535448
     atom   96 type  3   force =     0.13396348   -0.01111676   -0.01016262
     atom   97 type  3   force =     0.13285237    0.00143676    0.00983950
     atom   98 type  3   force =     0.13460560    0.01111110   -0.00982857
     atom   99 type  3   force =     0.13305261   -0.00083309    0.00955294
     atom  100 type  3   force =    -0.00852046    0.04972618   -0.00317031
     atom  101 type  3   force =    -0.00841661   -0.05574185    0.00241496
     atom  102 type  3   force =    -0.00809250   -0.05153512   -0.00299857
     atom  103 type  3   force =    -0.00821091    0.05425617    0.00247735
     atom  104 type  3   force =     0.00702193   -0.04470921    0.08320306
     atom  105 type  3   force =     0.00693163    0.04147773   -0.08032963
     atom  106 type  3   force =     0.00687813    0.04391394    0.08291616
     atom  107 type  3   force =     0.00678796   -0.04253625   -0.08066698

     Total force =     0.823015     Total SCF correction =     0.011107

     BFGS Geometry Optimization

     number of scf cycles    =   1
     number of bfgs steps    =   0

     energy   new            =  -12556.5268942632 Ry

     new trust radius        =       0.1628275025 bohr
     new conv_thr            =       0.0000100000 Ry


ATOMIC_POSITIONS (angstrom)
Nb            1.9773624632       14.2362712957        3.0173711665
Nb            5.9024229545        2.8022869482        0.4365380023
Nb            5.9082612748       19.3825747260        6.2475618258
Nb            1.9873978204       30.8206218024        3.6660915108
Nb            2.0488341286        2.6602841977        0.3908258829
Nb            5.9759844057       14.3684954976        3.0599667294
Nb            5.9637800209       30.9622580708        3.6197644845
Nb            2.0449237261       19.2502547527        6.2891915425
Nb            1.9896945604       12.6795408134        0.1733025893
Nb            5.9136606681        4.3634267243        3.2685084702
Nb            5.9141238957       20.9604410644        3.4091512278
Nb            1.9986441452       29.2596487838        0.0384788116
Nb            2.1269832713        4.2908677475        3.2259056876
Nb            6.0526135145       12.7488768316        0.2131928578
Nb            6.0420314862       29.3336848519        6.4559291617
Nb            2.1268452250       20.8904516507        3.4510643553
Nb            3.9916803602       11.6697886800        2.5853239757
Nb            0.0743487237        5.3534143823        0.8631561344
Nb            0.0757613814       21.9550265796        5.8166747788
Nb            3.9895518724       28.2704036751        4.0923749009
Nb            4.0709510981       10.1318906447        6.1268801497
Nb            0.1566802826        6.8920773597        3.7813938074
Nb            0.1562681023       23.4948500201        2.8960409978
Nb            4.0717839243       26.7314393321        0.5522676559
K             3.9520025302       15.8461053075        5.9299045723
K             0.0373319246        1.1726387491        3.9781720865
K             0.0374557278       17.7698237882        2.7010478228
K             3.9523322682       32.4509161959        0.7481893459
K             3.9710341629        1.2755413427        4.0148320280
K             3.9711752703       17.8787853464        2.6635079156
K             0.0560151199       32.3479287598        0.7847459486
K             0.0510588619       11.2316359239        3.8806005995
K             3.9661970594        5.7893641385        6.0280248458
K             3.9660802148       22.3933268017        0.6503162042
K             0.0511302841       27.8345286793        2.7979857181
K             0.0885734326        9.2192265956        0.3987012699
K             4.0037138499        7.8008248928        3.0495857982
K             4.0036316978       24.4051819489        3.6287114446
K             0.0886616705       25.8233231944        6.2797242562
O             2.3557541412       15.9484381998        3.5424262017
O             6.2671817965        1.0630561593        6.3593346093
O             6.2604424368       17.6852343506        0.3167432182
O             2.3522635973       32.5605842252        3.1294527604
O             5.8093258386       16.0418596877        3.5241880174
O             1.8993353771        0.9743363918        6.3780884176
O             1.9043296804       17.5916959989        0.2990094312
O             5.8143159723       32.6493331943        3.1481783112
O             2.1020251762       13.3260902702        4.9211840772
O             6.0133545265        3.6843815455        4.9906508643
O             6.0133511801       20.2923821854        1.6909732474
O             2.0983865391       29.9391165648        1.7607740940
O             6.0545814558       13.6003393810        5.0549183387
O             2.1434642659        3.4091832973        4.8584942871
O             2.1437861155       20.0174322122        1.8235791381
O             6.0584220278       30.2140206535        1.6284788337
O             2.1892287191       10.7578005370        6.0595924176
O             6.1021599259        6.2556272288        3.8482695309
O             6.1028547498       22.8631451035        2.8302695377
O             2.1872180407       27.3679840435        0.6179522372
O             5.9932284617       10.7810780512        6.2942998711
O             2.0792514405        6.2337065579        3.6138623945
O             2.0792804249       22.8402028461        3.0645400800
O             5.9944589528       27.3898724632        0.3840506106
O             2.0496888335       14.4343684361        1.0956524875
O             5.9590798628        2.5744277819        2.3569263120
O             5.9579919109       19.1852782978        4.3171099184
O             2.0440826774       31.0493720441        5.5871978389
O             5.9867537234       14.7638021830        1.1849954883
O             2.0765105641        2.2488900082        2.2698765644
O             2.0782114025       18.8582262425        4.4078708503
O             5.9913483756       31.3748270482        5.4998262122
O             2.1430227003       12.1421598435        2.3066870253
O             6.0568736055        4.8735397489        1.1422342995
O             6.0573848624       21.4818997903        5.5353162088
O             2.1418698886       28.7498077853        4.3723379215
O             5.8840194161       11.9530042757        2.2049530803
O             1.9710291608        5.0619887385        1.2441813094
O             1.9703426555       21.6700376733        5.4339706414
O             5.8862395508       28.5612479446        4.4739481346
O             4.0406838706       12.5209305335        0.4938641477
O             0.1252199015        4.4950392091        2.9552406395
O             0.1256739451       21.1008013298        3.7229679069
O             4.0401528975       29.1289934799        6.1854322192
O             0.1034328545       12.3992482553        0.3186440736
O             4.0197465858        4.6134121003        3.1305147676
O             4.0189107152       21.2187775200        3.5480682584
O             0.1047800213       29.0107421113        6.3603071571
O             3.8578299604        9.9465193760        1.6148834026
O             7.7731431214        7.0704242379        1.8330136747
O             7.7731099288       23.6763739739        4.8447057970
O             3.8583063146       26.5530265126        5.0631332371
O             0.0472288857       14.0728695314        3.2215493769
O             3.9664900421        2.9410766772        0.2235183344
O             3.9648865030       19.5482955998        6.4557947587
O             0.0514639557       30.6825474360        3.4534294702
O             3.9532214219       13.6901772645        3.1596981710
O             7.8676334442        3.3233383001        0.2885288379
O             7.8685612144       19.9334627391        6.3898749458
O             3.9527394077       30.3006141493        3.5183771993
O             4.1617541689        8.4061089605        5.7617273451
O             0.2468091232        8.6093456824        4.1462719429
O             0.2469806343       25.2165667876        2.5318182261
O             4.1619179738       25.0135111305        0.9163049564
O             4.1890678467       10.9355659066        4.2710911639
O             0.2740200618        6.0813620686        5.6388283914
O             0.2739917515       22.6876562557        1.0409393431
O             4.1889440355       27.5417107834        2.4086498732



     Writing output data file ./outdir2/knbo.save/
     NEW-OLD atomic charge density approx. for the potential

     Check: negative core charge=   -0.000189

     negative rho (up, down):  6.301E-05 0.000E+00

     total cpu time spent up to now is     6363.3 secs

     Self-consistent Calculation

     iteration #  1     ecut=    30.00 Ry     beta= 0.40
     Davidson diagonalization with overlap
     c_bands:  2 eigenvalues not converged
     c_bands:  1 eigenvalues not converged
     ethr =  1.00E-06,  avg # of iterations = 19.0

     negative rho (up, down):  7.260E-05 0.000E+00

     total cpu time spent up to now is     7436.6 secs

     total energy              =  -12556.78184312 Ry
     Harris-Foulkes estimate   =  -12557.16299878 Ry
     estimated scf accuracy    <       0.29006690 Ry

     iteration #  2     ecut=    30.00 Ry     beta= 0.40
     Davidson diagonalization with overlap
     ethr =  3.39E-05,  avg # of iterations =  7.5

     negative rho (up, down):  7.392E-05 0.000E+00

     total cpu time spent up to now is     7839.9 secs

     total energy              =  -12556.79347385 Ry
     Harris-Foulkes estimate   =  -12556.93302095 Ry
     estimated scf accuracy    <       0.48484657 Ry

     iteration #  3     ecut=    30.00 Ry     beta= 0.40
     Davidson diagonalization with overlap
     ethr =  3.39E-05,  avg # of iterations = 11.0

     negative rho (up, down):  7.460E-05 0.000E+00

     total cpu time spent up to now is     8255.9 secs

     total energy              =  -12556.81859135 Ry
     Harris-Foulkes estimate   =  -12556.89832028 Ry
     estimated scf accuracy    <       0.68648911 Ry

     iteration #  4     ecut=    30.00 Ry     beta= 0.40
     Davidson diagonalization with overlap
     ethr =  3.39E-05,  avg # of iterations = 16.5

     negative rho (up, down):  7.659E-05 0.000E+00

     total cpu time spent up to now is     8729.6 secs

     total energy              =  -12556.84877080 Ry
     Harris-Foulkes estimate   =  -12556.88230580 Ry
     estimated scf accuracy    <       0.27968933 Ry

     iteration #  5     ecut=    30.00 Ry     beta= 0.40
     Davidson diagonalization with overlap
     ethr =  3.27E-05,  avg # of iterations = 14.0

     negative rho (up, down):  7.840E-05 0.000E+00

     total cpu time spent up to now is     9116.7 secs

     total energy              =  -12556.85434004 Ry
     Harris-Foulkes estimate   =  -12556.87149057 Ry
     estimated scf accuracy    <       0.08843770 Ry

     iteration #  6     ecut=    30.00 Ry     beta= 0.40
     Davidson diagonalization with overlap
     c_bands:  2 eigenvalues not converged
     c_bands:  1 eigenvalues not converged
     ethr =  1.03E-05,  avg # of iterations = 19.0

     negative rho (up, down):  7.998E-05 0.000E+00

     total cpu time spent up to now is     9646.3 secs

     total energy              =  -12556.85140891 Ry
     Harris-Foulkes estimate   =  -12556.87719645 Ry
     estimated scf accuracy    <       0.31038568 Ry

     iteration #  7     ecut=    30.00 Ry     beta= 0.40
     Davidson diagonalization with overlap
     c_bands:  1 eigenvalues not converged
     ethr =  1.03E-05,  avg # of iterations = 15.8

     negative rho (up, down):  8.109E-05 0.000E+00

     total cpu time spent up to now is    10087.5 secs

     total energy              =  -12556.86323904 Ry
     Harris-Foulkes estimate   =  -12556.86475061 Ry
     estimated scf accuracy    <       0.00559334 Ry

     iteration #  8     ecut=    30.00 Ry     beta= 0.40
     Davidson diagonalization with overlap
     ethr =  6.54E-07,  avg # of iterations = 12.2

     negative rho (up, down):  8.185E-05 0.000E+00

     total cpu time spent up to now is    10475.6 secs

     total energy              =  -12556.86372178 Ry
     Harris-Foulkes estimate   =  -12556.86412567 Ry
     estimated scf accuracy    <       0.00130202 Ry

     iteration #  9     ecut=    30.00 Ry     beta= 0.40
     Davidson diagonalization with overlap
     ethr =  1.52E-07,  avg # of iterations =  2.0

     negative rho (up, down):  8.238E-05 0.000E+00

     total cpu time spent up to now is    10619.7 secs

     total energy              =  -12556.86379468 Ry
     Harris-Foulkes estimate   =  -12556.86400114 Ry
     estimated scf accuracy    <       0.00077973 Ry

     iteration # 10     ecut=    30.00 Ry     beta= 0.40
     Davidson diagonalization with overlap
     ethr =  9.12E-08,  avg # of iterations =  2.0

     negative rho (up, down):  8.259E-05 0.000E+00

     total cpu time spent up to now is    10755.2 secs

     total energy              =  -12556.86386008 Ry
     Harris-Foulkes estimate   =  -12556.86393633 Ry
     estimated scf accuracy    <       0.00031955 Ry

     iteration # 11     ecut=    30.00 Ry     beta= 0.40
     Davidson diagonalization with overlap
     ethr =  3.74E-08,  avg # of iterations =  2.0

     negative rho (up, down):  8.288E-05 0.000E+00

     total cpu time spent up to now is    10893.1 secs

     total energy              =  -12556.86389283 Ry
     Harris-Foulkes estimate   =  -12556.86390536 Ry
     estimated scf accuracy    <       0.00004327 Ry

     iteration # 12     ecut=    30.00 Ry     beta= 0.40
     Davidson diagonalization with overlap
     ethr =  5.06E-09,  avg # of iterations =  2.2

     negative rho (up, down):  8.302E-05 0.000E+00

     total cpu time spent up to now is    11049.6 secs

     total energy              =  -12556.86389788 Ry
     Harris-Foulkes estimate   =  -12556.86390180 Ry
     estimated scf accuracy    <       0.00001413 Ry

     iteration # 13     ecut=    30.00 Ry     beta= 0.40
     Davidson diagonalization with overlap
     ethr =  1.65E-09,  avg # of iterations =  2.0

     negative rho (up, down):  8.310E-05 0.000E+00

     total cpu time spent up to now is    11194.4 secs

     End of self-consistent calculation

          k = 0.0000 0.0000 0.0000 ( 31457 PWs)   bands (ev):

   -49.1996 -49.1922 -49.1363 -49.1296 -49.0978 -49.0750 -49.0612 -49.0137
   -48.9576 -48.9430 -48.8830 -48.8789 -48.8755 -48.8399 -48.8330 -48.8275
   -48.7836 -48.7585 -48.7056 -48.5950 -48.5728 -48.5533 -48.4858 -48.4112
   -25.5896 -25.5802 -25.5142 -25.5051 -25.4755 -25.4689 -25.4601 -25.3963
   -25.3855 -25.3840 -25.3560 -25.3556 -25.3486 -25.3362 -25.3328 -25.3279
   -25.3264 -25.3151 -25.3034 -25.2939 -25.2786 -25.2710 -25.2705 -25.2672
   -25.2413 -25.2405 -25.2295 -25.2288 -25.2092 -25.2027 -25.1954 -25.1776
   -25.1624 -25.1465 -25.1226 -25.1041 -25.1035 -25.0970 -25.0967 -25.0824
   -25.0693 -25.0441 -25.0383 -25.0325 -25.0241 -25.0202 -25.0141 -25.0052
   -24.9695 -24.9680 -24.9643 -24.9511 -24.9391 -24.9387 -24.9240 -24.8979
   -24.8779 -24.8755 -24.8538 -24.8289 -24.8043 -24.7930 -24.7841 -24.7742
   -24.7388 -24.7267 -24.7104 -24.6755 -24.6460 -24.6112 -24.5611 -24.5431
   -22.3090 -22.3062 -22.2202 -22.1962 -22.1749 -22.1645 -22.1364 -22.1105
   -22.1078 -22.1066 -22.0591 -21.9582 -21.8689 -21.8298 -21.7471 -12.1920
   -12.1822 -12.0588 -11.8969 -11.7720 -11.7628 -11.5933 -11.4977 -11.4870
   -11.4533 -11.3258 -11.3130 -11.2985 -11.2960 -11.2814 -11.2076 -11.1979
   -11.1801 -11.1770 -11.1494 -11.0544 -11.0502 -10.9951 -10.8919 -10.8872
   -10.8752 -10.8445 -10.8302 -10.7693 -10.7656 -10.7562 -10.7093 -10.7044
   -10.6927 -10.6314 -10.6298 -10.6091 -10.5965 -10.5612 -10.5588 -10.5347
   -10.5224 -10.4955 -10.4825 -10.4714 -10.4418 -10.4206 -10.3470 -10.3428
   -10.3410 -10.3130 -10.2912 -10.2498 -10.2302 -10.2263 -10.2203 -10.2068
   -10.1882 -10.1802 -10.0839 -10.0675  -9.9091  -9.8561  -9.8450  -9.8347
    -9.8231  -9.5745  -9.5166  -5.8732  -5.8505  -5.8363  -5.8262  -5.8240
    -5.7911  -5.7888  -5.7866  -5.7397  -5.7335  -5.7097  -5.6961  -5.6950
    -5.6822  -5.6781  -5.6745  -5.6722  -5.6548  -5.6417  -5.6381  -5.6357
    -5.6258  -5.6095  -5.6046  -5.5910  -5.5834  -5.5823  -5.5738  -5.5574
    -5.5540  -5.5338  -5.5256  -5.4924  -5.4895  -5.4740  -5.4524  -5.3975
    -5.3917  -5.3602  -5.3532  -5.2952  -5.2737  -5.2269  -5.2027  -5.1712
     0.1609   0.1699   0.2941   0.4927   0.5275   0.5398   0.6525   0.6636
     0.6762   0.8039   0.8556   0.8662   0.8674   0.9867   1.0049   1.0155
     1.0188   1.0408   1.0540   1.1722   1.1898   1.2129   1.2297   1.2333
     1.3324   1.3461   1.3773   1.4069   1.4243   1.5097   1.5287   1.5965
     1.6236   1.6463   1.6573   1.6809   1.7678   1.7823   1.8103   1.8373
     1.8652   1.8925   1.9054   1.9642   1.9769   2.0233   2.0355   2.0403
     2.0798   2.0990   2.1122   2.1732   2.1797   2.2093   2.2197   2.2530
     2.2921   2.3159   2.3285   2.3296   2.3350   2.3429   2.4114   2.4289
     2.4577   2.4766   2.4933   2.5580   2.6048   2.6110   2.6162   2.6604
     2.6713   2.6772   2.6951   2.7669   2.7928   2.8450   2.8599   2.8648
     2.8883   2.9248   2.9424   2.9752   2.9811   3.0098   3.0411   3.0549
     3.0799   3.0839   3.1513   3.1753   3.1832   3.1907   3.2163   3.2509
     3.2533   3.2792   3.2890   3.3008   3.3107   3.3418   3.3523   3.3995
     3.4391   3.4460   3.4617   3.4814   3.5383   3.5787   3.5947   3.6634
     3.6886   3.7146   3.7475   3.7762   3.7881   3.8047   3.8279   3.8582
     3.8808   3.8883   3.9290   3.9372   3.9603   3.9719   3.9902   3.9975
     4.0200   4.0559   4.0664   4.0916   4.1004   4.1120   4.1468   4.1551
     4.1816   4.1988   4.2144   4.2167   4.2378   4.2438   4.2575   4.2913
     4.2975   4.3176   4.3393   4.3448   4.3476   4.4126   4.4423   4.4474
     4.4676   4.4877   4.4954   4.5125   4.5414   4.5443   4.5489   4.5598
     4.5664   4.5761   4.6037   4.6257   4.6431   4.6582   4.6892   4.7020
     4.7382   4.7423   4.7616   4.7921   4.8155   4.8266   4.8308   4.8491
     4.8632   4.8638   4.8748   4.8959   4.9077   4.9355   4.9447   4.9617
     4.9801   5.0170   5.0296   5.0576   5.0735   5.0858   5.0932   5.1037
     5.1202   5.1359   5.1624   5.2185   5.2266   5.2472   5.2838   5.2924
     5.3763   5.3937   5.4143   5.5465   8.2206   8.2341   8.3727   8.5203
     8.7774   8.8190   8.9685   8.9877   9.0017   9.0985   9.1087   9.1245
     9.1835   9.2277   9.2452   9.3180   9.3424   9.3622   9.4183   9.4426
     9.4681   9.5552   9.5711   9.5812   9.6536   9.7588   9.7914   9.8231
     9.8296   9.9627  10.0316  10.0796  10.1103  10.1402  10.1521  10.1561
    10.1628  10.1738  10.2432  10.2815  10.3062  10.3350  10.3630  10.3822
    10.4102  10.4294  10.4337  10.4953  10.5099  10.5293  10.5423  10.5855
    10.6132  10.6449  10.6467  10.6627  10.7004  10.7057  10.7180  10.7358
    10.8014  10.8199  10.8270  10.8477  10.8729  10.8871  10.9056  10.9261
    10.9576  10.9816  10.9928  11.0788  11.1031  11.2056  11.2153  11.6111
    11.6753  11.7414  11.8279  11.9180  11.9799  12.0152  12.0600  12.1981
    12.3384  12.3921

          k = 0.0000 0.0000-0.6060 ( 31394 PWs)   bands (ev):

   -49.1995 -49.1921 -49.1361 -49.1294 -49.0977 -49.0750 -49.0611 -49.0136
   -48.9575 -48.9429 -48.8828 -48.8789 -48.8756 -48.8398 -48.8330 -48.8275
   -48.7837 -48.7585 -48.7057 -48.5951 -48.5728 -48.5534 -48.4857 -48.4112
   -25.5889 -25.5796 -25.5104 -25.5008 -25.4755 -25.4605 -25.4519 -25.3989
   -25.3883 -25.3825 -25.3554 -25.3492 -25.3475 -25.3377 -25.3315 -25.3299
   -25.3092 -25.3023 -25.2989 -25.2914 -25.2719 -25.2678 -25.2642 -25.2602
   -25.2410 -25.2331 -25.2297 -25.2229 -25.2148 -25.1948 -25.1795 -25.1771
   -25.1685 -25.1456 -25.1208 -25.1075 -25.0998 -25.0990 -25.0950 -25.0759
   -25.0570 -25.0511 -25.0428 -25.0386 -25.0375 -25.0315 -25.0112 -25.0043
   -24.9765 -24.9711 -24.9697 -24.9602 -24.9440 -24.9425 -24.9320 -24.8977
   -24.8957 -24.8748 -24.8531 -24.8292 -24.8059 -24.8058 -24.7824 -24.7794
   -24.7471 -24.7341 -24.7128 -24.6778 -24.6506 -24.6117 -24.5651 -24.5447
   -22.3079 -22.3062 -22.2176 -22.1953 -22.1773 -22.1599 -22.1408 -22.1108
   -22.1083 -22.1058 -22.0598 -21.9589 -21.8660 -21.8325 -21.7470 -12.1110
   -12.1021 -11.9832 -11.8106 -11.7019 -11.6922 -11.5587 -11.5476 -11.5008
   -11.3770 -11.3631 -11.3152 -11.2977 -11.2366 -11.2254 -11.2169 -11.1934
   -11.1300 -11.1178 -11.0727 -11.0714 -10.9784 -10.9671 -10.9563 -10.9201
   -10.9090 -10.9082 -10.8308 -10.8203 -10.8044 -10.7942 -10.7942 -10.7249
   -10.7106 -10.7022 -10.6530 -10.6450 -10.6411 -10.6299 -10.5990 -10.5415
   -10.5314 -10.4989 -10.4918 -10.4807 -10.4716 -10.4693 -10.3518 -10.3425
   -10.3307 -10.3169 -10.3130 -10.2710 -10.2671 -10.2460 -10.2231 -10.2153
   -10.1876 -10.1783 -10.1273 -10.0659  -9.9131  -9.8581  -9.8521  -9.8336
    -9.8325  -9.5728  -9.5168  -5.8711  -5.8698  -5.8065  -5.8052  -5.7798
    -5.7656  -5.7624  -5.7605  -5.7479  -5.7378  -5.7127  -5.7082  -5.7032
    -5.6896  -5.6817  -5.6698  -5.6594  -5.6570  -5.6483  -5.6467  -5.6407
    -5.6358  -5.6108  -5.6031  -5.5920  -5.5892  -5.5875  -5.5717  -5.5516
    -5.5420  -5.5396  -5.5271  -5.5034  -5.4854  -5.4654  -5.4495  -5.3960
    -5.3864  -5.3665  -5.3327  -5.3039  -5.2799  -5.2253  -5.2017  -5.1735
     0.1680   0.1764   0.3007   0.4990   0.6067   0.6197   0.6763   0.6903
     0.7530   0.8743   0.8758   0.8890   0.8993   0.9098   0.9203   1.0072
     1.0425   1.0691   1.0784   1.0805   1.1931   1.2296   1.2402   1.2767
     1.2876   1.3644   1.3744   1.3878   1.4390   1.4552   1.4697   1.5046
     1.5251   1.5380   1.5806   1.6262   1.6601   1.6854   1.7122   1.7233
     1.7426   1.7599   1.7729   1.8239   1.8594   1.9011   1.9511   1.9598
     1.9716   1.9906   1.9990   2.0348   2.1200   2.1712   2.2590   2.2657
     2.2786   2.3089   2.3440   2.3533   2.3858   2.3948   2.4374   2.5134
     2.5317   2.5390   2.5547   2.5746   2.5943   2.5983   2.6552   2.6842
     2.7045   2.7934   2.7969   2.8052   2.8133   2.8536   2.8650   2.9267
     2.9324   2.9433   2.9542   3.0241   3.0776   3.1176   3.1406   3.1445
     3.1766   3.2513   3.2548   3.2655   3.3508   3.3711   3.3776   3.4099
     3.4173   3.4258   3.4326   3.4417   3.4541   3.5189   3.5596   3.5753
     3.6056   3.6099   3.6179   3.6600   3.6651   3.6838   3.6988   3.7218
     3.7325   3.7644   3.7764   3.8200   3.8297   3.8364   3.8488   3.8706
     3.8842   3.9198   3.9474   3.9564   3.9666   3.9894   4.0154   4.0289
     4.0474   4.0650   4.0925   4.1004   4.1124   4.1264   4.1306   4.1518
     4.1736   4.1862   4.1890   4.1978   4.2337   4.2544   4.2561   4.2818
     4.2921   4.2960   4.3151   4.3295   4.3398   4.3470   4.3655   4.3906
     4.4013   4.4042   4.4220   4.4382   4.4660   4.4814   4.5168   4.5263
     4.5302   4.5768   4.5917   4.5951   4.6092   4.6304   4.6404   4.6449
     4.6680   4.6781   4.6826   4.6888   4.7269   4.7718   4.8023   4.8143
     4.8243   4.8414   4.8495   4.8612   4.8657   4.9143   4.9553   4.9671
     4.9718   4.9832   5.0176   5.0412   5.0487   5.0994   5.1108   5.1279
     5.1362   5.1412   5.1829   5.2036   5.2095   5.2348   5.2584   5.3066
     5.3495   5.3642   5.4074   5.5192   8.3952   8.4042   8.5421   8.6780
     8.6877   8.7254   8.9074   8.9274   8.9437   9.0888   9.0925   9.1320
     9.1504   9.2332   9.2591   9.2981   9.3108   9.3258   9.3405   9.3786
     9.4565   9.5220   9.5881   9.6144   9.6243   9.6434   9.7217   9.7328
     9.7899   9.8127   9.8240   9.8957   9.9264  10.0025  10.0118  10.0247
    10.0839  10.1272  10.1357  10.2003  10.2608  10.2692  10.2804  10.2912
    10.2985  10.3641  10.3779  10.3850  10.4528  10.4647  10.4885  10.5268
    10.5428  10.5477  10.5712  10.6226  10.6624  10.7027  10.7565  10.7707
    10.8403  10.8598  10.8712  10.9114  10.9538  11.0173  11.0253  11.0404
    11.0753  11.1619  11.1803  11.2534  11.2582  11.3366  11.3515  11.3989
    11.7053  11.7540  11.8123  11.8503  11.9702  12.0875  12.1610  12.1709
    12.2662  12.3171

          k =-0.5000 0.0000 0.0000 ( 31506 PWs)   bands (ev):

   -49.1996 -49.1922 -49.1364 -49.1297 -49.0977 -49.0750 -49.0612 -49.0138
   -48.9576 -48.9430 -48.8831 -48.8788 -48.8755 -48.8399 -48.8331 -48.8276
   -48.7837 -48.7585 -48.7057 -48.5950 -48.5728 -48.5533 -48.4858 -48.4112
   -25.5492 -25.5387 -25.5216 -25.5126 -25.4585 -25.4508 -25.4358 -25.4234
   -25.4137 -25.3907 -25.3617 -25.3536 -25.3508 -25.3507 -25.3439 -25.3230
   -25.3105 -25.3035 -25.2991 -25.2985 -25.2935 -25.2758 -25.2712 -25.2681
   -25.2394 -25.2379 -25.2274 -25.2257 -25.2189 -25.1971 -25.1856 -25.1791
   -25.1679 -25.1619 -25.1248 -25.1123 -25.0925 -25.0917 -25.0869 -25.0802
   -25.0760 -25.0459 -25.0389 -25.0337 -25.0233 -25.0191 -25.0167 -25.0033
   -24.9902 -24.9817 -24.9632 -24.9604 -24.9527 -24.9373 -24.9196 -24.8938
   -24.8763 -24.8743 -24.8545 -24.8238 -24.8029 -24.7811 -24.7746 -24.7730
   -24.7381 -24.7286 -24.7096 -24.6758 -24.6522 -24.6313 -24.5739 -24.5505
   -22.3082 -22.3065 -22.2201 -22.1961 -22.1748 -22.1644 -22.1363 -22.1107
   -22.1082 -22.1065 -22.0590 -21.9581 -21.8684 -21.8298 -21.7477 -12.0007
   -11.9896 -11.8574 -11.7182 -11.6112 -11.6020 -11.4531 -11.4224 -11.4126
   -11.3504 -11.3372 -11.3075 -11.2744 -11.2298 -11.2213 -11.2080 -11.2034
   -11.1937 -11.1143 -11.1127 -11.0964 -11.0874 -11.0845 -11.0518 -10.9596
   -10.9508 -10.9438 -10.9244 -10.8864 -10.8361 -10.8299 -10.8226 -10.7580
   -10.7480 -10.7390 -10.6631 -10.6537 -10.6351 -10.6128 -10.6059 -10.6016
   -10.5961 -10.5330 -10.5320 -10.4770 -10.4725 -10.4588 -10.4391 -10.4049
   -10.3384 -10.3274 -10.3251 -10.2898 -10.2550 -10.2306 -10.2274 -10.2146
   -10.1865 -10.1817 -10.0869 -10.0742  -9.9100  -9.8545  -9.8363  -9.8352
    -9.8342  -9.5733  -9.5186  -5.8578  -5.8563  -5.8353  -5.8303  -5.8293
    -5.7874  -5.7860  -5.7432  -5.7414  -5.7305  -5.7059  -5.6955  -5.6951
    -5.6818  -5.6754  -5.6747  -5.6715  -5.6541  -5.6384  -5.6364  -5.6354
    -5.6335  -5.6034  -5.5988  -5.5947  -5.5907  -5.5810  -5.5776  -5.5630
    -5.5608  -5.5546  -5.5323  -5.4914  -5.4880  -5.4735  -5.4530  -5.3979
    -5.3897  -5.3486  -5.3263  -5.2903  -5.2832  -5.2326  -5.2188  -5.1860
     0.4250   0.4370   0.5601   0.6936   0.7075   0.7175   0.7900   0.8001
     0.8350   0.9455   0.9510   0.9573   0.9825   0.9904   1.0041   1.0806
     1.0905   1.1758   1.1890   1.1933   1.2233   1.2330   1.2436   1.2897
     1.3410   1.3922   1.4050   1.4131   1.4790   1.5375   1.5403   1.6051
     1.6161   1.6330   1.6467   1.6639   1.7306   1.7401   1.7532   1.7610
     1.8360   1.8452   1.8951   1.9153   1.9332   1.9847   1.9961   2.0042
     2.0431   2.0504   2.0632   2.1205   2.1431   2.1629   2.1646   2.2020
     2.2354   2.2421   2.2804   2.3064   2.3546   2.4057   2.4258   2.4560
     2.4690   2.5557   2.5619   2.5982   2.6083   2.6166   2.6358   2.6782
     2.6891   2.7289   2.7655   2.7771   2.7991   2.8061   2.8394   2.8806
     2.8841   2.9064   2.9389   2.9514   2.9611   2.9684   3.0334   3.0399
     3.0520   3.0679   3.0792   3.0898   3.0990   3.1456   3.1869   3.2033
     3.2102   3.2191   3.2455   3.2987   3.3096   3.3140   3.3369   3.3453
     3.3542   3.3671   3.3778   3.4694   3.4882   3.5004   3.5151   3.5485
     3.5626   3.6180   3.6500   3.6609   3.6723   3.6977   3.7325   3.7584
     3.7883   3.8316   3.8525   3.8873   3.8958   3.9136   3.9331   3.9400
     3.9549   3.9599   4.0247   4.0878   4.0929   4.1035   4.1270   4.1647
     4.2121   4.2178   4.2200   4.2281   4.2636   4.2683   4.2963   4.3164
     4.3312   4.3475   4.4043   4.4167   4.4262   4.4525   4.4626   4.4780
     4.4889   4.5103   4.5194   4.5243   4.5349   4.5803   4.6132   4.6168
     4.6209   4.6511   4.6776   4.6852   4.6871   4.7079   4.7365   4.7583
     4.7704   4.7880   4.8069   4.8121   4.8422   4.8484   4.8513   4.8651
     4.8749   4.8844   4.8934   4.9037   4.9254   4.9300   4.9745   4.9837
     4.9863   4.9908   5.0105   5.0276   5.0782   5.0807   5.0900   5.0948
     5.0995   5.1398   5.1459   5.1790   5.1867   5.2163   5.2391   5.2731
     5.3230   5.3546   5.4106   5.4655   8.7213   8.7296   8.7980   8.8115
     8.8717   8.9430   8.9549   8.9858   9.0078   9.0095   9.0228   9.1144
     9.1494   9.1807   9.2359   9.2375   9.2455   9.3216   9.3608   9.3741
     9.3746   9.4476   9.4570   9.5021   9.5094   9.5213   9.5242   9.6521
     9.6619   9.6659   9.6747   9.7158   9.8353   9.8634   9.8678   9.8749
    10.0185  10.0679  10.0925  10.1387  10.1513  10.1967  10.2063  10.2426
    10.2648  10.2770  10.3557  10.3789  10.3880  10.3949  10.4039  10.4095
    10.4345  10.4632  10.4968  10.5704  10.5848  10.6386  10.6794  10.7009
    10.7074  10.7320  10.7483  10.7774  10.8108  10.8193  10.8432  10.8434
    10.8584  10.9424  10.9975  11.0759  11.2478  11.2628  11.3120  11.3435
    11.9542  11.9605  12.0802  12.0999  12.1931  12.2703  12.3345  12.4637
    12.4986  12.5301

          k =-0.5000 0.0000-0.6060 ( 31516 PWs)   bands (ev):

   -49.1995 -49.1921 -49.1363 -49.1296 -49.0977 -49.0750 -49.0612 -49.0137
   -48.9576 -48.9430 -48.8830 -48.8789 -48.8756 -48.8398 -48.8331 -48.8276
   -48.7837 -48.7586 -48.7058 -48.5951 -48.5728 -48.5534 -48.4858 -48.4113
   -25.5450 -25.5345 -25.5184 -25.5089 -25.4574 -25.4497 -25.4336 -25.4187
   -25.4086 -25.3876 -25.3675 -25.3596 -25.3582 -25.3519 -25.3496 -25.3027
   -25.2949 -25.2934 -25.2923 -25.2916 -25.2808 -25.2680 -25.2663 -25.2582
   -25.2442 -25.2425 -25.2321 -25.2245 -25.2207 -25.1864 -25.1750 -25.1684
   -25.1668 -25.1659 -25.1255 -25.1190 -25.0926 -25.0919 -25.0868 -25.0799
   -25.0506 -25.0430 -25.0420 -25.0388 -25.0367 -25.0306 -25.0200 -25.0033
   -24.9988 -24.9889 -24.9704 -24.9664 -24.9627 -24.9414 -24.9258 -24.8930
   -24.8929 -24.8756 -24.8539 -24.8249 -24.8035 -24.7921 -24.7786 -24.7741
   -24.7461 -24.7363 -24.7125 -24.6782 -24.6554 -24.6332 -24.5750 -24.5549
   -22.3076 -22.3059 -22.2175 -22.1952 -22.1772 -22.1598 -22.1407 -22.1111
   -22.1086 -22.1057 -22.0597 -21.9588 -21.8655 -21.8325 -21.7476 -11.8561
   -11.8462 -11.7130 -11.5639 -11.5428 -11.5331 -11.4376 -11.4244 -11.3762
[...]
    -5.5973  -5.5957  -5.5827  -5.5718  -5.5655  -5.5480  -5.5423  -5.5422
    -5.5222  -5.5192  -5.5139  -5.5099  -5.5080  -5.5055  -5.4864  -5.4761
    -5.4632  -5.4454  -5.4336  -5.4099  -5.4056  -5.3935  -5.3747  -5.3681
    -5.3507  -5.3506  -5.3473  -5.3290  -5.3073  -5.2836  -5.2790  -5.2480
     0.5293   0.5473   0.6752   0.7681   0.8102   0.8190   0.8366   0.8429
     0.9355   0.9445   0.9502   0.9804   0.9877   0.9971   1.0122   1.0612
     1.0671   1.0707   1.0957   1.1007   1.1567   1.1688   1.2468   1.2570
     1.2698   1.3361   1.3588   1.4267   1.4582   1.4693   1.5384   1.5464
     1.6191   1.6411   1.6489   1.6971   1.7271   1.8090   1.8139   1.8222
     1.8335   1.8372   1.8576   1.8824   1.9881   2.0150   2.0234   2.0321
     2.0751   2.1308   2.1485   2.1580   2.1647   2.1730   2.2097   2.2945
     2.2952   2.3286   2.3310   2.3559   2.4002   2.4038   2.4066   2.4373
     2.4419   2.4485   2.4522   2.5207   2.5335   2.5792   2.6119   2.6147
     2.6235   2.6311   2.6415   2.6710   2.7062   2.7538   2.7873   2.8296
     2.8449   2.8773   2.8880   2.8975   3.0085   3.0541   3.0964   3.1044
     3.1148   3.1459   3.1516   3.1642   3.2263   3.2423   3.2796   3.2911
     3.2940   3.3422   3.3497   3.3601   3.4135   3.4593   3.4628   3.4700
     3.4812   3.5162   3.5382   3.5592   3.6168   3.6463   3.6875   3.7065
     3.7172   3.7314   3.7874   3.7903   3.8173   3.8246   3.8416   3.8491
     3.8590   3.8761   3.9199   3.9283   3.9757   3.9806   3.9885   4.0065
     4.0282   4.0333   4.0405   4.0750   4.0837   4.1008   4.1106   4.1206
     4.1365   4.1484   4.1971   4.2024   4.2124   4.2144   4.2215   4.2326
     4.2659   4.2800   4.3172   4.3340   4.3572   4.3647   4.3670   4.3768
     4.4121   4.4257   4.4371   4.4481   4.4542   4.4944   4.5307   4.5464
     4.5923   4.5956   4.6039   4.6103   4.6229   4.6311   4.6365   4.7245
     4.7463   4.7518   4.7704   4.7792   4.7964   4.7989   4.8096   4.8183
     4.8323   4.8409   4.8685   4.8736   4.9177   4.9266   4.9336   4.9413
     4.9493   4.9538   4.9642   4.9795   5.0031   5.0259   5.0285   5.0314
     5.0422   5.0703   5.0960   5.1299   5.1483   5.1699   5.1781   5.1895
     5.2025   5.2053   5.2929   5.3228   8.5335   8.5453   8.6846   8.7975
     8.8612   8.8749   9.0688   9.0919   9.1009   9.1329   9.1551   9.1718
     9.1845   9.1915   9.2498   9.2719   9.2857   9.3022   9.3431   9.3472
     9.3512   9.3616   9.4018   9.4105   9.4843   9.5134   9.5333   9.5792
     9.5807   9.5916   9.6672   9.6779   9.7623   9.7744   9.8655   9.8698
     9.8979   9.9052   9.9067   9.9147   9.9426  10.0576  10.0802  10.1079
    10.1468  10.1555  10.3065  10.3096  10.3167  10.4265  10.4344  10.4373
    10.4450  10.5005  10.5404  10.6133  10.6147  10.6198  10.6562  10.6923
    10.7107  10.7282  10.7873  10.8083  10.9760  10.9849  11.0015  11.0121
    11.1047  11.1348  11.1923  11.2252  11.6134  11.6430  11.6552  11.6968
    11.7215  11.7481  11.8962  12.0086  12.1153  12.1251  12.1851  12.2200
    12.2573  12.3126

     the Fermi energy is     6.9580 ev

!    total energy              =  -12557.20126418 Ry
     Harris-Foulkes estimate   =  -12557.20126423 Ry
     estimated scf accuracy    <       0.00000008 Ry

     total all-electron energy =   -211664.338054 Ry

     The total energy is the sum of the following terms:

     one-electron contribution =   -3460.04599593 Ry
     hartree contribution      =    2136.71377091 Ry
     xc contribution           =   -1367.96507369 Ry
     ewald contribution        =   -3382.68733041 Ry
     one-center paw contrib.   =   -6482.72414596 Ry
     smearing contrib. (-TS)   =      -0.49248909 Ry

     convergence has been achieved in  10 iterations

     negative rho (up, down):  1.784E-04 0.000E+00

     Forces acting on atoms (cartesian axes, Ry/au):

     atom    1 type  1   force =     0.00037199   -0.00091527   -0.00034775
     atom    2 type  1   force =     0.00068625    0.00039232    0.00010172
     atom    3 type  1   force =     0.00088189    0.00094293   -0.00055544
     atom    4 type  1   force =     0.00063034   -0.00050021    0.00003161
     atom    5 type  1   force =     0.00116451   -0.00032387    0.00013853
     atom    6 type  1   force =     0.00141491   -0.00029318   -0.00085664
     atom    7 type  1   force =     0.00116664    0.00042833   -0.00020541
     atom    8 type  1   force =     0.00138686   -0.00059806    0.00008772
     atom    9 type  1   force =    -0.00041634   -0.00062668   -0.00063130
     atom   10 type  1   force =    -0.00026319    0.00028730    0.00063708
     atom   11 type  1   force =    -0.00026849    0.00111605   -0.00072081
     atom   12 type  1   force =    -0.00004542   -0.00058916    0.00055639
     atom   13 type  1   force =     0.00011760   -0.00124937    0.00008061
     atom   14 type  1   force =     0.00027633    0.00107888   -0.00019005
     atom   15 type  1   force =     0.00023821    0.00107890    0.00008902
     atom   16 type  1   force =     0.00007774   -0.00090079    0.00007024
     atom   17 type  1   force =    -0.00098053   -0.00005957   -0.00035142
     atom   18 type  1   force =    -0.00111839   -0.00028360    0.00038220
     atom   19 type  1   force =    -0.00111304   -0.00012170    0.00006286
     atom   20 type  1   force =    -0.00102911    0.00030912    0.00003148
     atom   21 type  1   force =     0.00063958   -0.00103365    0.00057891
     atom   22 type  1   force =     0.00067080    0.00020828   -0.00078311
     atom   23 type  1   force =     0.00091093    0.00099718    0.00115802
     atom   24 type  1   force =     0.00068107   -0.00040395   -0.00095155
     atom   25 type  2   force =     0.00006027    0.00063028    0.00009033
     atom   26 type  2   force =     0.00006400   -0.00032994   -0.00004542
     atom   27 type  2   force =    -0.00003434   -0.00046021    0.00043489
     atom   28 type  2   force =     0.00030126    0.00017518   -0.00013211
     atom   29 type  2   force =    -0.00022087    0.00042235   -0.00044851
     atom   30 type  2   force =    -0.00070092    0.00089078    0.00014853
     atom   31 type  2   force =    -0.00034299   -0.00069329   -0.00048603
     atom   32 type  2   force =    -0.00027066   -0.00053513   -0.00033612
     atom   33 type  2   force =    -0.00015653    0.00078705    0.00008709
     atom   34 type  2   force =    -0.00030889    0.00081310    0.00011051
     atom   35 type  2   force =    -0.00017453   -0.00065957    0.00001798
     atom   36 type  2   force =    -0.00055709   -0.00039667   -0.00013255
     atom   37 type  2   force =    -0.00058311    0.00069941   -0.00041825
     atom   38 type  2   force =    -0.00058968    0.00066924    0.00004733
     atom   39 type  2   force =    -0.00052765   -0.00038780    0.00001506
     atom   40 type  3   force =    -0.00052614   -0.00070100    0.00096297
     atom   41 type  3   force =     0.00095784   -0.00016314   -0.00073343
     atom   42 type  3   force =     0.00033694    0.00048059    0.00003941
     atom   43 type  3   force =     0.00082162    0.00007608   -0.00055508
     atom   44 type  3   force =     0.00198181   -0.00106907   -0.00077737
     atom   45 type  3   force =     0.00147866    0.00010743    0.00101473
     atom   46 type  3   force =     0.00178656    0.00030711   -0.00080785
     atom   47 type  3   force =     0.00145388   -0.00017435    0.00052917
     atom   48 type  3   force =     0.00003858   -0.00000465    0.00021169
     atom   49 type  3   force =     0.00009668    0.00004312    0.00048861
     atom   50 type  3   force =    -0.00027092    0.00116360   -0.00023323
     atom   51 type  3   force =    -0.00002535   -0.00013015    0.00021993
     atom   52 type  3   force =     0.00033753   -0.00043883   -0.00109945
     atom   53 type  3   force =    -0.00002124   -0.00030466    0.00116238
     atom   54 type  3   force =     0.00016732    0.00038597   -0.00087129
     atom   55 type  3   force =     0.00014249    0.00069909    0.00084649
     atom   56 type  3   force =    -0.00039204    0.00124414    0.00025667
     atom   57 type  3   force =    -0.00073546   -0.00122800    0.00002659
     atom   58 type  3   force =    -0.00055880   -0.00091417    0.00012090
     atom   59 type  3   force =    -0.00056728    0.00118332    0.00036492
     atom   60 type  3   force =    -0.00070712    0.00004742    0.00177009
     atom   61 type  3   force =     0.00002434   -0.00035139   -0.00167011
     atom   62 type  3   force =    -0.00011444   -0.00062644    0.00200627
     atom   63 type  3   force =    -0.00012736    0.00060875   -0.00165604
     atom   64 type  3   force =    -0.00016955   -0.00100049    0.00053373
     atom   65 type  3   force =     0.00033026    0.00004813   -0.00046537
     atom   66 type  3   force =     0.00036280    0.00036616    0.00064539
     atom   67 type  3   force =     0.00041820   -0.00016920   -0.00069440
     atom   68 type  3   force =    -0.00018251   -0.00189254   -0.00019577
     atom   69 type  3   force =    -0.00081730    0.00109515    0.00021608
     atom   70 type  3   force =    -0.00079844    0.00162486    0.00041023
     atom   71 type  3   force =    -0.00067348   -0.00170340   -0.00033172
     atom   72 type  3   force =     0.00043533    0.00148162   -0.00022580
     atom   73 type  3   force =     0.00001604   -0.00176238    0.00027357
     atom   74 type  3   force =     0.00002040   -0.00138085   -0.00028478
     atom   75 type  3   force =     0.00021008    0.00147913    0.00028525
     atom   76 type  3   force =     0.00054549   -0.00008777   -0.00117449
     atom   77 type  3   force =     0.00058771   -0.00018605    0.00111086
     atom   78 type  3   force =     0.00038590    0.00072372   -0.00050579
     atom   79 type  3   force =     0.00040025    0.00013355    0.00076214
     atom   80 type  3   force =     0.00009066   -0.00115926    0.00031680
     atom   81 type  3   force =     0.00006860    0.00089941   -0.00077811
     atom   82 type  3   force =     0.00028147    0.00136033    0.00067439
     atom   83 type  3   force =     0.00016987   -0.00095874   -0.00085424
     atom   84 type  3   force =    -0.00064918   -0.00142104    0.00175096
     atom   85 type  3   force =    -0.00035620    0.00129106   -0.00125821
     atom   86 type  3   force =    -0.00047623    0.00130078    0.00159620
     atom   87 type  3   force =    -0.00030042   -0.00132163   -0.00134808
     atom   88 type  3   force =     0.00048240   -0.00129874   -0.00089816
     atom   89 type  3   force =     0.00027534    0.00094188    0.00098130
     atom   90 type  3   force =     0.00019992    0.00154992   -0.00050454
     atom   91 type  3   force =     0.00033076   -0.00117105    0.00068873
     atom   92 type  3   force =    -0.00067320    0.00115408   -0.00068480
     atom   93 type  3   force =    -0.00048401   -0.00018827    0.00037003
     atom   94 type  3   force =    -0.00056627   -0.00008493    0.00003962
     atom   95 type  3   force =    -0.00050249    0.00022250    0.00029811
     atom   96 type  3   force =    -0.00142935   -0.00045533   -0.00009985
     atom   97 type  3   force =    -0.00127055    0.00038977    0.00036803
     atom   98 type  3   force =    -0.00135399    0.00050597    0.00011625
     atom   99 type  3   force =    -0.00140230   -0.00052634   -0.00007973
     atom  100 type  3   force =    -0.00035816   -0.00077557   -0.00026866
     atom  101 type  3   force =    -0.00083227    0.00017246    0.00040751
     atom  102 type  3   force =    -0.00034641    0.00076394   -0.00020810
     atom  103 type  3   force =    -0.00087450   -0.00045365    0.00037457
     atom  104 type  3   force =     0.00031691   -0.00106947   -0.00035159
     atom  105 type  3   force =     0.00053283    0.00039985    0.00010073
     atom  106 type  3   force =     0.00019453    0.00096748    0.00012172
     atom  107 type  3   force =     0.00024359   -0.00061083   -0.00021262

     Total force =     0.013146     Total SCF correction =     0.001230

     number of scf cycles    =  23
     number of bfgs steps    =  22

     energy   old            =  -12557.2009315018 Ry
     energy   new            =  -12557.2012641766 Ry

     CASE: energy  _new < energy  _old

     new trust radius        =       0.0168478425 bohr
     new conv_thr            =       0.0000002006 Ry


ATOMIC_POSITIONS (angstrom)
Nb            2.0462921335       14.3254480435        3.0764498377
Nb            5.9538963869        2.6886210488        0.3925219675
Nb            5.9520558653       19.2910511120        6.3166662577
Nb            2.0424717279       30.9414548811        3.6020114297
Nb            2.0612694126        2.6791530717        0.3769781040
Nb            5.9714040613       14.3395089995        3.1045108943
Nb            5.9771358324       30.9473757432        3.6008253796
Nb            2.0598093808       19.2895247741        6.3125334613
Nb            2.0235648622       12.6865349259        0.1831047832
Nb            5.9424455940        4.3639944602        3.2669068607
Nb            5.9426115507       20.9581724791        3.4323948008
Nb            2.0246975149       29.2670684884        0.0183077526
Nb            2.1284016028        4.3436749110        3.2487872013
Nb            6.0637895679       12.7055277109        0.2103234128
Nb            6.0433353881       29.2784862204        6.4728251225
Nb            2.1263946457       20.9518606273        3.4340255157
Nb            4.0339255492       11.6480055560        2.6051285147
Nb            0.1141604968        5.3531221497        0.8360781250
Nb            0.1149781582       21.9790418121        5.8434754248
Nb            4.0308037420       28.2672188308        4.0666776328
Nb            4.0484778753       10.0658768887        6.1224435630
Nb            0.1305182268        6.9572676546        3.7875068163
Nb            0.1211213345       23.5755479150        2.8933957450
Nb            4.0389681559       26.6689604956        0.5629831920
K             4.0185540094       15.8519436140        5.9845938305
K             0.1086076448        1.1968905831        3.9248397495
K             0.1135201285       17.4961638585        2.8029620275
K             4.0225442750       32.4373956111        0.6841437032
K             4.0224288206        1.2992091311        3.9315270230
K             4.0237586043       17.9045053278        2.6897503923
K             0.1121687850       32.3321502582        0.6975907379
K             0.1210562803       11.3155456651        3.8879318317
K             4.0316247775        5.7254110839        6.0530020801
K             4.0333295525       22.3103029639        0.6441248784
K             0.1170303407       27.9131421259        2.8143818593
K             0.1257898590        9.2245240401        0.3868242124
K             4.0359690924        7.8462433139        3.1112261997
K             4.0353495393       24.4141963236        3.6079976642
K             0.1175109820       25.8030791705        6.3241529111
O             2.3585485281       16.0064332214        3.5709943100
O             6.1600925176        0.9950136796        6.2981254926
O             6.0601266977       17.6272278022        0.4583509881
O             2.2469469946       32.6332895752        3.0441255010
O             5.6506408564       16.0196692558        3.5984116160
O             1.8470913218        0.9901480131        6.2676447133
O             1.9337720528       17.6271584993        0.4567823517
O             5.7561260086       32.6361194227        3.0361655262
O             2.0082700717       13.3644356893        4.8948864580
O             5.9255257135        3.5959417667        4.9860319398
O             5.9204833630       20.2242252740        1.7013275799
O             2.0035027705       30.0393047721        1.7400630147
O             6.0255113897       13.4039143403        4.9287634008
O             2.1055471422        3.5730093207        4.9655787807
O             2.1120312589       20.2144173682        1.7074088651
O             6.0323527869       30.0502768758        1.7317256336
O             2.1808425009       10.7174758567        6.1820871450
O             6.0842822525        6.3025453535        3.7212698311
O             6.0854077065       22.9178974189        2.9588746502
O             2.1675583193       27.3289122323        0.4924437317
O             5.9039890962       10.7410793730        6.1733832143
O             1.9920960707        6.2792725430        3.7323033752
O             1.9823601516       22.9065062731        2.9479534872
O             5.9019570581       27.3464541467        0.5083079029
O             2.1666971294       14.4207052864        1.1113889730
O             6.0016876994        2.5667717059        2.3541156897
O             6.0002670199       19.1824193006        4.3371968118
O             2.0932303377       31.0626505625        5.5688673069
O             5.8712846232       14.4388388976        1.1292086330
O             2.0290292548        2.5447588813        2.3441870512
O             2.0336602315       19.1681037153        4.3306634514
O             5.9415293552       31.0796374863        5.5701625183
O             2.1429835810       12.0513124497        2.2586908437
O             6.0565333890        4.9307669858        1.1816262662
O             6.0599708629       21.5806728262        5.4884247197
O             2.1416025739       28.6907303499        4.4048852631
O             5.9250707985       12.0698740477        2.2754173143
O             2.0009170549        4.9099825823        1.1677079664
O             1.9967333724       21.5546521004        5.4979077085
O             5.9175807788       28.7116556617        4.3960722682
O             4.0361859756       12.4418091002        0.4436647182
O             0.1157110327        4.5340425947        2.9968587990
O             0.1145848287       21.1744883137        3.6801775612
O             4.0302080533       29.0907360244        6.2236818468
O             0.1248757791       12.4146658382        0.3462501802
O             4.0326637131        4.5454620882        3.1155383623
O             4.0313080776       21.1907075289        3.5630133501
O             0.1166849558       29.0660580855        6.3306681190
O             4.0493106152        9.9632721141        1.6381909981
O             7.9619215465        7.0257622835        1.8049548181
O             7.9607784954       23.6585747543        4.8749130837
O             4.0470676911       26.5971428000        5.0398790578
O             0.0979043538       14.2492386385        3.0877296108
O             4.0104550291        2.8287074829        0.3316854016
O             4.0103273368       19.5161473229        6.3300689415
O             0.0978300746       30.8037251514        3.5622649586
O             4.0206475544       13.6854409083        3.1142178393
O             7.9311565141        3.2802939061        0.3581776446
O             7.9287905055       19.9030642198        6.3204432291
O             4.0175064333       30.3381892950        3.5794718893
O             4.0638865082        8.3128277182        5.7529553195
O             0.1549434489        8.6991069864        4.1552419941
O             0.1306518988       25.3238283940        2.5209243825
O             4.0537643350       24.9267342071        0.9321217667
O             4.0349335760       10.8053477057        4.2390329917
O             0.1131510325        6.1712654703        5.6532575627
O             0.1151390665       22.8055246530        1.0227892232
O             4.0281331192       27.4366786311        2.4309621601



     Writing output data file ./outdir2/knbo.save/
     NEW-OLD atomic charge density approx. for the potential

     Check: negative core charge=   -0.000190

     negative rho (up, down):  1.754E-04 0.000E+00

     total cpu time spent up to now is    64551.5 secs

     Self-consistent Calculation

     iteration #  1     ecut=    30.00 Ry     beta= 0.40
     Davidson diagonalization with overlap
