
     Program PWSCF v.5.1 starts on 16May2020 at 21:57:26 

     This program is part of the open-source Quantum ESPRESSO suite
     for quantum simulation of materials; please cite
         "P. Giannozzi et al., J. Phys.:Condens. Matter 21 395502 (2009);
          URL http://www.quantum-espresso.org", 
     in publications or presentations arising from this work. More details at
     http://www.quantum-espresso.org/quote

     Parallel version (MPI), running on     2 processors
     R & G space division:  proc/nbgrp/npool/nimage =       2
     Waiting for input...
     Reading input from standard input
     Message from routine read_cards :
     DEPRECATED: no units specified in ATOMIC_POSITIONS card
     Message from routine read_cards :
     ATOMIC_POSITIONS: units set to alat

     Current dimensions of program PWSCF are:
     Max number of different atomic species (ntypx) = 10
     Max number of k-points (npk) =  40000
     Max angular momentum in pseudopotentials (lmaxx) =  3

     Subspace diagonalization in iterative solution of the eigenvalue problem:
     a serial algorithm will be used


     Parallelization info
     --------------------
     sticks:   dense  smooth     PW     G-vecs:    dense   smooth      PW
     Min         237     237     75                 3367     3367     620
     Max         238     238     76                 3368     3368     623
     Sum         475     475    151                 6735     6735    1243



     bravais-lattice index     =            2
     lattice parameter (alat)  =      10.6500  a.u.
     unit-cell volume          =     301.9874 (a.u.)^3
     number of atoms/cell      =            2
     number of atomic types    =            1
     number of electrons       =        28.00
     number of Kohn-Sham states=           14
     kinetic-energy cutoff     =      30.0000  Ry
     charge density cutoff     =     120.0000  Ry
     convergence threshold     =      1.0E-08
     mixing beta               =       0.7000
     number of iterations used =            8  plain     mixing
     Exchange-correlation      =  SLA  PW   PBX  PBC ( 1  4  3  4 0)

     celldm(1)=  10.650000  celldm(2)=   0.000000  celldm(3)=   0.000000
     celldm(4)=   0.000000  celldm(5)=   0.000000  celldm(6)=   0.000000

     crystal axes: (cart. coord. in units of alat)
               a(1) = (  -0.500000   0.000000   0.500000 )  
               a(2) = (   0.000000   0.500000   0.500000 )  
               a(3) = (  -0.500000   0.500000   0.000000 )  

     reciprocal axes: (cart. coord. in units 2 pi/alat)
               b(1) = ( -1.000000 -1.000000  1.000000 )  
               b(2) = (  1.000000  1.000000  1.000000 )  
               b(3) = ( -1.000000  1.000000 -1.000000 )  


     PseudoPot. # 1 for Ge read from file:
     ./ge_pbe_v1.4.uspp.F.UPF
     MD5 check sum: 9c9eaa91e581c3f09632fb3098b2c6b2
     Pseudo is Ultrasoft + core correction, Zval = 14.0
     Generated by new atomic code, or converted to UPF format
     Using radial grid of  873 points,  6 beta functions with: 
                l(1) =   0
                l(2) =   0
                l(3) =   1
                l(4) =   1
                l(5) =   2
                l(6) =   2
     Q(r) pseudized with  8 coefficients,  rinner =    1.400   1.400   1.400
                                                       1.400   1.400

     atomic species   valence    mass     pseudopotential
        Ge            14.00    72.59000     Ge( 1.00)

     24 Sym. Ops. (no inversion) found
          (note: 24 additional sym.ops. were found but ignored
           their fractional translations are incommensurate with FFT grid)


   Cartesian axes

     site n.     atom                  positions (alat units)
         1           Ge  tau(   1) = (   0.0000000   0.0000000   0.0000000  )
         2           Ge  tau(   2) = (   0.2500000   0.2500000   0.2500000  )

     number of k points=    35
                       cart. coord. in units 2pi/alat
        k(    1) = (   0.0000000   0.0000000   0.0000000), wk =   0.0027435
        k(    2) = (  -0.1111111   0.1111111  -0.1111111), wk =   0.0219479
        k(    3) = (  -0.2222222   0.2222222  -0.2222222), wk =   0.0219479
        k(    4) = (  -0.3333333   0.3333333  -0.3333333), wk =   0.0219479
        k(    5) = (  -0.4444444   0.4444444  -0.4444444), wk =   0.0219479
        k(    6) = (   0.0000000   0.2222222   0.0000000), wk =   0.0164609
        k(    7) = (  -0.1111111   0.3333333  -0.1111111), wk =   0.0658436
        k(    8) = (  -0.2222222   0.4444444  -0.2222222), wk =   0.0658436
        k(    9) = (  -0.3333333   0.5555556  -0.3333333), wk =   0.0658436
        k(   10) = (   0.5555556  -0.3333333   0.5555556), wk =   0.0658436
        k(   11) = (   0.4444444  -0.2222222   0.4444444), wk =   0.0658436
        k(   12) = (   0.3333333  -0.1111111   0.3333333), wk =   0.0658436
        k(   13) = (   0.2222222  -0.0000000   0.2222222), wk =   0.0329218
        k(   14) = (   0.0000000   0.4444444   0.0000000), wk =   0.0164609
        k(   15) = (  -0.1111111   0.5555556  -0.1111111), wk =   0.0658436
        k(   16) = (  -0.2222222   0.6666667  -0.2222222), wk =   0.0658436
        k(   17) = (   0.6666667  -0.2222222   0.6666667), wk =   0.0658436
        k(   18) = (   0.5555556  -0.1111111   0.5555556), wk =   0.0658436
        k(   19) = (   0.4444444   0.0000000   0.4444444), wk =   0.0329218
        k(   20) = (   0.0000000   0.6666667   0.0000000), wk =   0.0164609
        k(   21) = (  -0.1111111   0.7777778  -0.1111111), wk =   0.0658436
        k(   22) = (   0.7777778  -0.1111111   0.7777778), wk =   0.0658436
        k(   23) = (   0.6666667  -0.0000000   0.6666667), wk =   0.0329218
        k(   24) = (   0.0000000   0.8888889   0.0000000), wk =   0.0164609
        k(   25) = (   0.8888889   0.0000000   0.8888889), wk =   0.0329218
        k(   26) = (  -0.2222222   0.4444444   0.0000000), wk =   0.0658436
        k(   27) = (  -0.3333333   0.5555556  -0.1111111), wk =   0.1316872
        k(   28) = (   0.5555556  -0.3333333   0.7777778), wk =   0.1316872
        k(   29) = (  -0.2222222   0.6666667   0.0000000), wk =   0.0658436
        k(   30) = (   0.6666667  -0.2222222   0.8888889), wk =   0.1316872
        k(   31) = (   0.5555556  -0.1111111   0.7777778), wk =   0.1316872
        k(   32) = (   0.4444444   0.0000000   0.6666667), wk =   0.0658436
        k(   33) = (   0.7777778  -0.1111111   1.0000000), wk =   0.0658436
        k(   34) = (   0.6666667  -0.0000000   0.8888889), wk =   0.0658436
        k(   35) = (   0.5555556  -0.1111111   1.0000000), wk =   0.0658436

     Dense  grid:     6735 G-vectors     FFT dimensions: (  27,  27,  27)

     Largest allocated arrays     est. size (Mb)     dimensions
        Kohn-Sham Wavefunctions         0.09 Mb     (     435,   14)
        NL pseudopotentials             0.24 Mb     (     435,   36)
        Each V/rho on FFT grid          0.16 Mb     (   10206)
        Each G-vector array             0.03 Mb     (    3368)
        G-vector shells                 0.00 Mb     (     118)
     Largest temporary arrays     est. size (Mb)     dimensions
        Auxiliary wavefunctions         0.37 Mb     (     435,   56)
        Each subspace H/S matrix        0.05 Mb     (      56,   56)
        Each <psi_i|beta_j> matrix      0.01 Mb     (      36,   14)
        Arrays for rho mixing           1.25 Mb     (   10206,    8)

     Check: negative/imaginary core charge=   -0.000138    0.000000

     Initial potential from superposition of free atoms

     starting charge   27.99825, renormalised to   28.00000
     Starting wfc are   18 randomized atomic wfcs

     total cpu time spent up to now is        1.9 secs

     per-process dynamical memory:    10.6 Mb

     Self-consistent Calculation

     iteration #  1     ecut=    30.00 Ry     beta=0.70
     Davidson diagonalization with overlap
     ethr =  1.00E-02,  avg # of iterations =  1.7

     Threshold (ethr) on eigenvalues was too large:
     Diagonalizing with lowered threshold

     Davidson diagonalization with overlap
     ethr =  1.24E-04,  avg # of iterations =  1.9

     total cpu time spent up to now is        5.2 secs

     total energy              =    -427.26798366 Ry
     Harris-Foulkes estimate   =    -427.27583659 Ry
     estimated scf accuracy    <       0.03653694 Ry

     iteration #  2     ecut=    30.00 Ry     beta=0.70
     Davidson diagonalization with overlap
     ethr =  1.30E-04,  avg # of iterations =  1.0

     total cpu time spent up to now is        6.2 secs

     total energy              =    -427.26929607 Ry
     Harris-Foulkes estimate   =    -427.26936209 Ry
     estimated scf accuracy    <       0.00190299 Ry

     iteration #  3     ecut=    30.00 Ry     beta=0.70
     Davidson diagonalization with overlap
     ethr =  6.80E-06,  avg # of iterations =  2.4

     total cpu time spent up to now is        7.5 secs

     total energy              =    -427.26946538 Ry
     Harris-Foulkes estimate   =    -427.26949073 Ry
     estimated scf accuracy    <       0.00005446 Ry

     iteration #  4     ecut=    30.00 Ry     beta=0.70
     Davidson diagonalization with overlap
     ethr =  1.95E-07,  avg # of iterations =  2.1

     total cpu time spent up to now is        9.0 secs

     total energy              =    -427.26948585 Ry
     Harris-Foulkes estimate   =    -427.26948641 Ry
     estimated scf accuracy    <       0.00000518 Ry

     iteration #  5     ecut=    30.00 Ry     beta=0.70
     Davidson diagonalization with overlap
     ethr =  1.85E-08,  avg # of iterations =  2.1

     total cpu time spent up to now is       10.4 secs

     total energy              =    -427.26948677 Ry
     Harris-Foulkes estimate   =    -427.26948675 Ry
     estimated scf accuracy    <       0.00000009 Ry

     iteration #  6     ecut=    30.00 Ry     beta=0.70
     Davidson diagonalization with overlap
     ethr =  3.23E-10,  avg # of iterations =  2.6

     total cpu time spent up to now is       11.6 secs

     End of self-consistent calculation

          k = 0.0000 0.0000 0.0000 (   869 PWs)   bands (ev):

   -16.2752 -16.2752 -16.2752 -16.2454 -16.2454 -16.0403 -16.0403 -16.0403
   -16.0136 -16.0136  -4.2227   8.6345   8.6345   8.6345

          k =-0.1111 0.1111-0.1111 (   854 PWs)   bands (ev):

   -16.2815 -16.2815 -16.2717 -16.2288 -16.2288 -16.0422 -16.0422 -16.0332
   -16.0060 -16.0060  -4.0706   6.5722   8.3546   8.3546

          k =-0.2222 0.2222-0.2222 (   839 PWs)   bands (ev):

   -16.2880 -16.2880 -16.2681 -16.2086 -16.2086 -16.0455 -16.0455 -16.0414
   -15.9955 -15.9955  -3.6252   4.4122   7.8559   7.8559

          k =-0.3333 0.3333-0.3333 (   842 PWs)   bands (ev):

   -16.2956 -16.2956 -16.2649 -16.2002 -16.2002 -16.0544 -16.0544 -16.0476
   -15.9901 -15.9901  -2.9397   2.5190   7.4527   7.4527

          k =-0.4444 0.4444-0.4444 (   835 PWs)   bands (ev):

   -16.2965 -16.2965 -16.2600 -16.1929 -16.1929 -16.0584 -16.0584 -16.0437
   -15.9865 -15.9865  -2.2417   1.2023   7.2391   7.2391

          k = 0.0000 0.2222 0.0000 (   865 PWs)   bands (ev):

   -16.2856 -16.2856 -16.2841 -16.2375 -16.2147 -16.0641 -16.0281 -16.0281
   -16.0206 -15.9993  -4.0193   6.5418   7.8876   7.8876

          k =-0.1111 0.3333-0.1111 (   852 PWs)   bands (ev):

   -16.2941 -16.2883 -16.2751 -16.2200 -16.2004 -16.0794 -16.0357 -16.0248
   -16.0081 -15.9937  -3.6690   4.9047   7.3591   7.3612

          k =-0.2222 0.4444-0.2222 (   847 PWs)   bands (ev):

   -16.3027 -16.2939 -16.2647 -16.2059 -16.1875 -16.0875 -16.0453 -16.0358
   -15.9976 -15.9850  -3.0527   3.0545   6.7587   7.0049

          k =-0.3333 0.5556-0.3333 (   836 PWs)   bands (ev):

   -16.3079 -16.2936 -16.2535 -16.1922 -16.1852 -16.0804 -16.0553 -16.0440
   -15.9871 -15.9758  -2.3062   1.5458   6.2895   6.8874

          k = 0.5556-0.3333 0.5556 (   842 PWs)   bands (ev):

   -16.3083 -16.3013 -16.2487 -16.1915 -16.1874 -16.0682 -16.0675 -16.0558
   -15.9828 -15.9779  -1.9863   1.0326   6.0403   7.0177

          k = 0.4444-0.2222 0.4444 (   832 PWs)   bands (ev):

   -16.3008 -16.2985 -16.2444 -16.1967 -16.1839 -16.0735 -16.0594 -16.0463
   -15.9812 -15.9805  -2.5538   1.9913   6.0535   7.3693

          k = 0.3333-0.1111 0.3333 (   838 PWs)   bands (ev):

   -16.2993 -16.2928 -16.2598 -16.2049 -16.1913 -16.0673 -16.0584 -16.0282
   -15.9974 -15.9853  -3.2863   3.6470   6.3766   7.8707

          k = 0.2222-0.0000 0.2222 (   843 PWs)   bands (ev):

   -16.2905 -16.2830 -16.2711 -16.2205 -16.2049 -16.0567 -16.0469 -16.0190
   -16.0125 -15.9916  -3.8196   5.3986   7.1492   8.3321

          k = 0.0000 0.4444 0.0000 (   849 PWs)   bands (ev):

   -16.2897 -16.2897 -16.2896 -16.2089 -16.1828 -16.1075 -16.0371 -16.0058
   -16.0058 -15.9987  -3.4141   4.4370   6.8065   6.8065

          k =-0.1111 0.5556-0.1111 (   835 PWs)   bands (ev):

   -16.3025 -16.2914 -16.2715 -16.1900 -16.1586 -16.1245 -16.0474 -16.0164
   -15.9932 -15.9826  -2.8788   3.1527   6.1078   6.4271

          k =-0.2222 0.6667-0.2222 (   836 PWs)   bands (ev):

   -16.3155 -16.2983 -16.2487 -16.1779 -16.1542 -16.1265 -16.0658 -16.0376
   -15.9786 -15.9691  -2.1423   1.7843   5.3221   6.3039

          k = 0.6667-0.2222 0.6667 (   839 PWs)   bands (ev):

   -16.3201 -16.3037 -16.2346 -16.1669 -16.1651 -16.1108 -16.0808 -16.0541
   -15.9781 -15.9649  -1.5752   0.9503   4.8010   6.4529

          k = 0.5556-0.1111 0.5556 (   840 PWs)   bands (ev):

   -16.3168 -16.3049 -16.2278 -16.1849 -16.1626 -16.0926 -16.0860 -16.0632
   -15.9762 -15.9677  -1.9350   1.4635   4.6702   6.8477

          k = 0.4444 0.0000 0.4444 (   843 PWs)   bands (ev):

   -16.3084 -16.3028 -16.2399 -16.2019 -16.1736 -16.0866 -16.0704 -16.0491
   -15.9806 -15.9795  -2.6831   2.6419   5.1138   7.3990

          k = 0.0000 0.6667 0.0000 (   837 PWs)   bands (ev):

   -16.2999 -16.2999 -16.2753 -16.1733 -16.1550 -16.1311 -16.0647 -16.0092
   -15.9857 -15.9857  -2.4239   2.4246   5.9978   5.9978

          k =-0.1111 0.7778-0.1111 (   835 PWs)   bands (ev):

   -16.3114 -16.3008 -16.2518 -16.1738 -16.1559 -16.1161 -16.0804 -16.0331
   -15.9750 -15.9689  -1.7305   1.3956   5.3068   5.8213

          k = 0.7778-0.1111 0.7778 (   828 PWs)   bands (ev):

   -16.3200 -16.3026 -16.2294 -16.1611 -16.1405 -16.1174 -16.0961 -16.0526
   -15.9690 -15.9572  -1.0185   0.5515   4.4723   5.9261

          k = 0.6667-0.0000 0.6667 (   816 PWs)   bands (ev):

   -16.3186 -16.2980 -16.2185 -16.1450 -16.1402 -16.1186 -16.0988 -16.0574
   -15.9684 -15.9523  -1.2055   0.7657   4.1363   6.2945

          k = 0.0000 0.8889 0.0000 (   818 PWs)   bands (ev):

   -16.2982 -16.2982 -16.2464 -16.2010 -16.1327 -16.0952 -16.0832 -16.0351
   -15.9657 -15.9657  -1.0817   0.5591   5.5767   5.5767

          k = 0.8889 0.0000 0.8889 (   824 PWs)   bands (ev):

   -16.3080 -16.3028 -16.2261 -16.2086 -16.1172 -16.1126 -16.0745 -16.0612
   -15.9652 -15.9591  -0.3713  -0.1766   5.0372   5.6137

          k =-0.2222 0.4444 0.0000 (   841 PWs)   bands (ev):

   -16.3005 -16.2941 -16.2645 -16.2051 -16.1810 -16.0969 -16.0436 -16.0240
   -15.9998 -15.9852  -3.2277   3.7852   6.0996   7.2631

          k =-0.3333 0.5556-0.1111 (   838 PWs)   bands (ev):

   -16.3090 -16.3026 -16.2452 -16.1934 -16.1675 -16.1047 -16.0560 -16.0448
   -15.9820 -15.9750  -2.5454   2.3568   5.4032   6.8278

          k = 0.5556-0.3333 0.7778 (   835 PWs)   bands (ev):

   -16.3146 -16.3043 -16.2348 -16.1813 -16.1651 -16.0982 -16.0697 -16.0589
   -15.9754 -15.9679  -1.8370   1.1845   5.1334   6.5149

          k =-0.2222 0.6667 0.0000 (   842 PWs)   bands (ev):

   -16.3099 -16.3055 -16.2524 -16.1769 -16.1447 -16.1428 -16.0668 -16.0361
   -15.9773 -15.9758  -2.2677   2.1492   5.3673   6.0585

          k = 0.6667-0.2222 0.8889 (   842 PWs)   bands (ev):

   -16.3200 -16.3103 -16.2295 -16.1631 -16.1486 -16.1329 -16.0841 -16.0582
   -15.9709 -15.9641  -1.5112   1.1126   4.7153   5.7692

          k = 0.5556-0.1111 0.7778 (   833 PWs)   bands (ev):

   -16.3209 -16.3101 -16.2163 -16.1597 -16.1375 -16.1288 -16.0941 -16.0673
   -15.9671 -15.9583  -1.2017   0.7418   4.3538   5.8745

          k = 0.4444 0.0000 0.6667 (   840 PWs)   bands (ev):

   -16.3171 -16.3128 -16.2224 -16.1778 -16.1470 -16.1207 -16.0776 -16.0666
   -15.9720 -15.9662  -1.8292   1.4966   4.5130   6.3024

          k = 0.7778-0.1111 1.0000 (   837 PWs)   bands (ev):

   -16.3125 -16.3090 -16.2278 -16.1898 -16.1391 -16.1016 -16.0993 -16.0582
   -15.9647 -15.9632  -0.9885   0.5242   5.0821   5.3034

          k = 0.6667-0.0000 0.8889 (   833 PWs)   bands (ev):

   -16.3216 -16.3105 -16.2098 -16.1720 -16.1300 -16.1137 -16.1046 -16.0745
   -15.9627 -15.9564  -0.5403   0.0969   4.4497   5.3874

          k = 0.5556-0.1111 1.0000 (   837 PWs)   bands (ev):

   -16.3220 -16.3178 -16.2000 -16.1614 -16.1452 -16.1127 -16.1067 -16.0812
   -15.9606 -15.9565  -0.7646   0.3717   4.4781   5.1064

     highest occupied level (ev):     8.6345

!    total energy              =    -427.26948679 Ry
     Harris-Foulkes estimate   =    -427.26948679 Ry
     estimated scf accuracy    <          8.3E-09 Ry

     The total energy is the sum of the following terms:

     one-electron contribution =    -276.91446878 Ry
     hartree contribution      =     164.52857657 Ry
     xc contribution           =    -116.60896232 Ry
     ewald contribution        =    -198.27463226 Ry

     convergence has been achieved in   6 iterations

     Writing output data file $PREFIX.save

     init_run     :      1.03s CPU      1.69s WALL (       1 calls)
     electrons    :      8.34s CPU      9.72s WALL (       1 calls)

     Called by init_run:
     wfcinit      :      0.65s CPU      1.15s WALL (       1 calls)
     potinit      :      0.01s CPU      0.02s WALL (       1 calls)

     Called by electrons:
     c_bands      :      6.91s CPU      8.09s WALL (       7 calls)
     sum_band     :      1.26s CPU      1.45s WALL (       7 calls)
     v_of_rho     :      0.06s CPU      0.07s WALL (       7 calls)
     newd         :      0.12s CPU      0.13s WALL (       7 calls)
     mix_rho      :      0.00s CPU      0.00s WALL (       7 calls)

     Called by c_bands:
     init_us_2    :      0.13s CPU      0.18s WALL (     525 calls)
     cegterg      :      6.64s CPU      7.75s WALL (     245 calls)

     Called by *egterg:
     h_psi        :      5.78s CPU      7.05s WALL (     763 calls)
     s_psi        :      0.26s CPU      0.31s WALL (     763 calls)
     g_psi        :      0.01s CPU      0.01s WALL (     483 calls)
     cdiaghg      :      0.31s CPU      0.34s WALL (     693 calls)

     Called by h_psi:
     add_vuspsi   :      0.26s CPU      0.32s WALL (     763 calls)

     General routines
     calbec       :      0.46s CPU      0.54s WALL (    1008 calls)
     fft          :      0.05s CPU      0.06s WALL (      93 calls)
     fftw         :      5.80s CPU      7.05s WALL (   21472 calls)
     davcio       :      0.00s CPU      0.01s WALL (      35 calls)

     Parallel routines
     fft_scatter  :      1.32s CPU      1.78s WALL (   21565 calls)

     PWSCF        :     9.60s CPU        11.69s WALL


   This run was terminated on:  21:57:38  16May2020            

=------------------------------------------------------------------------------=
   JOB DONE.
=------------------------------------------------------------------------------=
