
     Program BANDS v.6.0 (svn rev. 13079) starts on  6Mar2020 at 14:57:20 

     This program is part of the open-source Quantum ESPRESSO suite
     for quantum simulation of materials; please cite
         "P. Giannozzi et al., J. Phys.:Condens. Matter 21 395502 (2009);
          URL http://www.quantum-espresso.org", 
     in publications or presentations arising from this work. More details at
     http://www.quantum-espresso.org/quote

     Parallel version (MPI), running on     1 processors

     Reading data from directory:
     ./sil.save

   Info: using nr1, nr2, nr3 values from input

   Info: using nr1, nr2, nr3 values from input

     IMPORTANT: XC functional enforced from input :
     Exchange-correlation      =  SLA  PZ   NOGX NOGC ( 1  1  0  0 0 0)
     Any further DFT definition will be discarded
     Please, verify this is what you really want


     G-vector sticks info
     --------------------
     sticks:   dense  smooth     PW     G-vecs:    dense   smooth      PW
     Sum         733     733    211                12939    12939    2085

     high-symmetry point: -0.5000 0.5000 0.5000   x coordinate   0.0000
     high-symmetry point:  0.0000 0.0000 0.0000   x coordinate   0.8660
     high-symmetry point: -1.0000 0.0000 0.0000   x coordinate   1.8660
     high-symmetry point: -1.0000 0.2500 0.2500   x coordinate   2.2196
     high-symmetry point: -0.7500 0.7500 0.0000   x coordinate   2.8320
     high-symmetry point:  0.0000 0.0000 0.0000   x coordinate   3.8926

     Plottable bands (eV) written to file Bandx.dat.gnu
     Bands written to file Bandx.dat

 **************************************************************************

                    xk=(  -0.50000,   0.50000,   0.50000  )

     zone border point and non-symmorphic group 
     symmetry decomposition not available

 **************************************************************************

 **************************************************************************

                    xk=(  -0.48333,   0.48333,   0.48333  )

     point group C_3v (3m)  
     there are  3 classes
     the character table:

       E     2C3   3s_v 
A_1    1.00  1.00  1.00
A_2    1.00  1.00 -1.00
E      2.00 -1.00  0.00

     the symmetry operations in each class and the name of the first element:

     E        1
                                                                 
     2C3      2    3
                                                                 
     3s_v     4    5    6
                                                                 

     Band symmetry, C_3v (3m)   point group:

     e(  1 -  1) =     -3.54934  eV     1   --> A_1  L_1       
     e(  2 -  2) =     -0.90266  eV     1   --> A_1  L_1       
     e(  3 -  4) =      4.85646  eV     2   --> E    L_3       
     e(  5 -  5) =      7.54548  eV     1   --> A_1  L_1       
     e(  6 -  7) =      9.38763  eV     2   --> E    L_3       
     e(  8 -  8) =     13.61519  eV     1   --> A_1  L_1       

 **************************************************************************

 **************************************************************************

                    xk=(  -0.46667,   0.46667,   0.46667  )

     Band symmetry, C_3v (3m)   point group:

     e(  1 -  1) =     -3.59644  eV     1   --> A_1  L_1       
     e(  2 -  2) =     -0.83493  eV     1   --> A_1  L_1       
     e(  3 -  4) =      4.86245  eV     2   --> E    L_3       
     e(  5 -  5) =      7.55233  eV     1   --> A_1  L_1       
     e(  6 -  7) =      9.39453  eV     2   --> E    L_3       
     e(  8 -  8) =     13.62610  eV     1   --> A_1  L_1       

 **************************************************************************

 **************************************************************************

                    xk=(  -0.45000,   0.45000,   0.45000  )

     Band symmetry, C_3v (3m)   point group:

     e(  1 -  1) =     -3.66992  eV     1   --> A_1  L_1       
     e(  2 -  2) =     -0.72713  eV     1   --> A_1  L_1       
     e(  3 -  4) =      4.87242  eV     2   --> E    L_3       
     e(  5 -  5) =      7.56371  eV     1   --> A_1  L_1       
     e(  6 -  7) =      9.40579  eV     2   --> E    L_3       
     e(  8 -  8) =     13.64384  eV     1   --> A_1  L_1       

 **************************************************************************

 **************************************************************************

                    xk=(  -0.43333,   0.43333,   0.43333  )

     Band symmetry, C_3v (3m)   point group:

     e(  1 -  1) =     -3.76400  eV     1   --> A_1  L_1       
     e(  2 -  2) =     -0.58506  eV     1   --> A_1  L_1       
     e(  3 -  4) =      4.88637  eV     2   --> E    L_3       
     e(  5 -  5) =      7.57961  eV     1   --> A_1  L_1       
     e(  6 -  7) =      9.42102  eV     2   --> E    L_3       
     e(  8 -  8) =     13.66770  eV     1   --> A_1  L_1       

 **************************************************************************

 **************************************************************************

                    xk=(  -0.41667,   0.41667,   0.41667  )

     Band symmetry, C_3v (3m)   point group:

     e(  1 -  1) =     -3.87291  eV     1   --> A_1  L_1       
     e(  2 -  2) =     -0.41451  eV     1   --> A_1  L_1       
     e(  3 -  4) =      4.90430  eV     2   --> E    L_3       
     e(  5 -  5) =      7.60004  eV     1   --> A_1  L_1       
     e(  6 -  7) =      9.43970  eV     2   --> E    L_3       
     e(  8 -  8) =     13.69644  eV     1   --> A_1  L_1       

 **************************************************************************

 **************************************************************************

                    xk=(  -0.40000,   0.40000,   0.40000  )

     Band symmetry, C_3v (3m)   point group:

     e(  1 -  1) =     -3.99173  eV     1   --> A_1  L_1       
     e(  2 -  2) =     -0.22053  eV     1   --> A_1  L_1       
     e(  3 -  4) =      4.92619  eV     2   --> E    L_3       
     e(  5 -  5) =      7.62493  eV     1   --> A_1  L_1       
     e(  6 -  7) =      9.46109  eV     2   --> E    L_3       
     e(  8 -  8) =     13.72805  eV     1   --> A_1  L_1       

 **************************************************************************

 **************************************************************************

                    xk=(  -0.38333,   0.38333,   0.38333  )

     Band symmetry, C_3v (3m)   point group:

     e(  1 -  1) =     -4.11643  eV     1   --> A_1  L_1       
     e(  2 -  2) =     -0.00718  eV     1   --> A_1  L_1       
     e(  3 -  4) =      4.95201  eV     2   --> E    L_3       
     e(  5 -  5) =      7.65424  eV     1   --> A_1  L_1       
     e(  6 -  7) =      9.48427  eV     2   --> E    L_3       
     e(  8 -  8) =     13.75909  eV     1   --> A_1  L_1       

 **************************************************************************

 **************************************************************************

                    xk=(  -0.36667,   0.36667,   0.36667  )

     Band symmetry, C_3v (3m)   point group:

     e(  1 -  1) =     -4.24399  eV     1   --> A_1  L_1       
     e(  2 -  2) =      0.22238  eV     1   --> A_1  L_1       
     e(  3 -  4) =      4.98175  eV     2   --> E    L_3       
     e(  5 -  5) =      7.68790  eV     1   --> A_1  L_1       
     e(  6 -  7) =      9.50809  eV     2   --> E    L_3       
     e(  8 -  8) =     13.78357  eV     1   --> A_1  L_1       

 **************************************************************************

 **************************************************************************

                    xk=(  -0.35000,   0.35000,   0.35000  )

     Band symmetry, C_3v (3m)   point group:

     e(  1 -  1) =     -4.37209  eV     1   --> A_1  L_1       
     e(  2 -  2) =      0.46569  eV     1   --> A_1  L_1       
     e(  3 -  4) =      5.01536  eV     2   --> E    L_3       
     e(  5 -  5) =      7.72583  eV     1   --> A_1  L_1       
     e(  6 -  7) =      9.53115  eV     2   --> E    L_3       
     e(  8 -  8) =     13.79097  eV     1   --> A_1  L_1       

 **************************************************************************

 **************************************************************************

                    xk=(  -0.33333,   0.33333,   0.33333  )

     Band symmetry, C_3v (3m)   point group:

     e(  1 -  1) =     -4.49898  eV     1   --> A_1  L_1       
     e(  2 -  2) =      0.72087  eV     1   --> A_1  L_1       
     e(  3 -  4) =      5.05278  eV     2   --> E    L_3       
     e(  5 -  5) =      7.76792  eV     1   --> A_1  L_1       
     e(  6 -  7) =      9.55182  eV     2   --> E    L_3       
     e(  8 -  8) =     13.76409  eV     1   --> A_1  L_1       

 **************************************************************************

 **************************************************************************

                    xk=(  -0.31667,   0.31667,   0.31667  )

     Band symmetry, C_3v (3m)   point group:

     e(  1 -  1) =     -4.62334  eV     1   --> A_1  L_1       
     e(  2 -  2) =      0.98639  eV     1   --> A_1  L_1       
     e(  3 -  4) =      5.09394  eV     2   --> E    L_3       
     e(  5 -  5) =      7.81401  eV     1   --> A_1  L_1       
     e(  6 -  7) =      9.56821  eV     2   --> E    L_3       
     e(  8 -  8) =     13.68181  eV     1   --> A_1  L_1       

 **************************************************************************

 **************************************************************************

                    xk=(  -0.30000,   0.30000,   0.30000  )

     Band symmetry, C_3v (3m)   point group:

     e(  1 -  1) =     -4.74417  eV     1   --> A_1  L_1       
     e(  2 -  2) =      1.26105  eV     1   --> A_1  L_1       
     e(  3 -  4) =      5.13874  eV     2   --> E    L_3       
     e(  5 -  5) =      7.86399  eV     1   --> A_1  L_1       
     e(  6 -  7) =      9.57828  eV     2   --> E    L_3       
     e(  8 -  8) =     13.53350  eV     1   --> A_1  L_1       

 **************************************************************************

 **************************************************************************

                    xk=(  -0.28333,   0.28333,   0.28333  )

     Band symmetry, C_3v (3m)   point group:

     e(  1 -  1) =     -4.86069  eV     1   --> A_1  L_1       
     e(  2 -  2) =      1.54379  eV     1   --> A_1  L_1       
     e(  3 -  4) =      5.18706  eV     2   --> E    L_3       
     e(  5 -  5) =      7.91761  eV     1   --> A_1  L_1       
     e(  6 -  7) =      9.57992  eV     2   --> E    L_3       
     e(  8 -  8) =     13.32932  eV     1   --> A_1  L_1       

 **************************************************************************

 **************************************************************************

                    xk=(  -0.26667,   0.26667,   0.26667  )

     Band symmetry, C_3v (3m)   point group:

     e(  1 -  1) =     -4.97229  eV     1   --> A_1  L_1       
     e(  2 -  2) =      1.83371  eV     1   --> A_1  L_1       
     e(  3 -  4) =      5.23874  eV     2   --> E    L_3       
     e(  5 -  5) =      7.97458  eV     1   --> A_1  L_1       
     e(  6 -  7) =      9.57110  eV     2   --> E    L_3       
     e(  8 -  8) =     13.08825  eV     1   --> A_1  L_1       

 **************************************************************************

 **************************************************************************

                    xk=(  -0.25000,   0.25000,   0.25000  )

     Band symmetry, C_3v (3m)   point group:

     e(  1 -  1) =     -5.07853  eV     1   --> A_1  L_1       
     e(  2 -  2) =      2.12997  eV     1   --> A_1  L_1       
     e(  3 -  4) =      5.29355  eV     2   --> E    L_3       
     e(  5 -  5) =      8.03464  eV     1   --> A_1  L_1       
     e(  6 -  7) =      9.55016  eV     2   --> E    L_3       
     e(  8 -  8) =     12.82518  eV     1   --> A_1  L_1       

 **************************************************************************

 **************************************************************************

                    xk=(  -0.23333,   0.23333,   0.23333  )

     Band symmetry, C_3v (3m)   point group:

     e(  1 -  1) =     -5.17900  eV     1   --> A_1  L_1       
     e(  2 -  2) =      2.43173  eV     1   --> A_1  L_1       
     e(  3 -  4) =      5.35125  eV     2   --> E    L_3       
     e(  5 -  5) =      8.09736  eV     1   --> A_1  L_1       
     e(  6 -  7) =      9.51603  eV     2   --> E    L_3       
     e(  8 -  8) =     12.54909  eV     1   --> A_1  L_1       

 **************************************************************************

 **************************************************************************

                    xk=(  -0.21667,   0.21667,   0.21667  )

     Band symmetry, C_3v (3m)   point group:

     e(  1 -  1) =     -5.27341  eV     1   --> A_1  L_1       
     e(  2 -  2) =      2.73815  eV     1   --> A_1  L_1       
     e(  3 -  4) =      5.41150  eV     2   --> E    L_3       
     e(  5 -  5) =      8.16221  eV     1   --> A_1  L_1       
     e(  6 -  7) =      9.46844  eV     2   --> E    L_3       
     e(  8 -  8) =     12.26494  eV     1   --> A_1  L_1       

 **************************************************************************

 **************************************************************************

                    xk=(  -0.20000,   0.20000,   0.20000  )

     Band symmetry, C_3v (3m)   point group:

     e(  1 -  1) =     -5.36151  eV     1   --> A_1  L_1       
     e(  2 -  2) =      3.04830  eV     1   --> A_1  L_1       
     e(  3 -  4) =      5.47389  eV     2   --> E    L_3       
     e(  5 -  5) =      8.22856  eV     1   --> A_1  L_1       
     e(  6 -  7) =      9.40804  eV     2   --> E    L_3       
     e(  8 -  8) =     11.97572  eV     1   --> A_1  L_1       

 **************************************************************************

 **************************************************************************

                    xk=(  -0.18333,   0.18333,   0.18333  )

     Band symmetry, C_3v (3m)   point group:

     e(  1 -  1) =     -5.44311  eV     1   --> A_1  L_1       
     e(  2 -  2) =      3.36116  eV     1   --> A_1  L_1       
     e(  3 -  4) =      5.53791  eV     2   --> E    L_3       
     e(  5 -  5) =      8.29564  eV     1   --> A_1  L_1       
     e(  6 -  7) =      9.33639  eV     2   --> E    L_3       
     e(  8 -  8) =     11.68348  eV     1   --> A_1  L_1       

 **************************************************************************

 **************************************************************************

                    xk=(  -0.16667,   0.16667,   0.16667  )

     Band symmetry, C_3v (3m)   point group:

     e(  1 -  1) =     -5.51802  eV     1   --> A_1  L_1       
     e(  2 -  2) =      3.67548  eV     1   --> A_1  L_1       
     e(  3 -  4) =      5.60292  eV     2   --> E    L_3       
     e(  5 -  5) =      8.36248  eV     1   --> A_1  L_1       
     e(  6 -  7) =      9.25575  eV     2   --> E    L_3       
     e(  8 -  8) =     11.38976  eV     1   --> A_1  L_1       

 **************************************************************************

 **************************************************************************

                    xk=(  -0.15000,   0.15000,   0.15000  )

     Band symmetry, C_3v (3m)   point group:

     e(  1 -  1) =     -5.58613  eV     1   --> A_1  L_1       
     e(  2 -  2) =      3.98975  eV     1   --> A_1  L_1       
     e(  3 -  4) =      5.66815  eV     2   --> E    L_3       
     e(  5 -  5) =      8.42782  eV     1   --> A_1  L_1       
     e(  6 -  7) =      9.16888  eV     2   --> E    L_3       
     e(  8 -  8) =     11.09633  eV     1   --> A_1  L_1       

 **************************************************************************

 **************************************************************************

                    xk=(  -0.13333,   0.13333,   0.13333  )

     Band symmetry, C_3v (3m)   point group:

     e(  1 -  1) =     -5.64733  eV     1   --> A_1  L_1       
     e(  2 -  2) =      4.30200  eV     1   --> A_1  L_1       
     e(  3 -  4) =      5.73266  eV     2   --> E    L_3       
     e(  5 -  5) =      8.49017  eV     1   --> A_1  L_1       
     e(  6 -  7) =      9.07884  eV     2   --> E    L_3       
     e(  8 -  8) =     10.80534  eV     1   --> A_1  L_1       

 **************************************************************************

 **************************************************************************

                    xk=(  -0.11667,   0.11667,   0.11667  )

     Band symmetry, C_3v (3m)   point group:

     e(  1 -  1) =     -5.70152  eV     1   --> A_1  L_1       
     e(  2 -  2) =      4.60964  eV     1   --> A_1  L_1       
     e(  3 -  4) =      5.79532  eV     2   --> E    L_3       
     e(  5 -  5) =      8.54752  eV     1   --> A_1  L_1       
     e(  6 -  7) =      8.98881  eV     2   --> E    L_3       
     e(  8 -  8) =     10.51984  eV     1   --> A_1  L_1       

 **************************************************************************

 **************************************************************************

                    xk=(  -0.10000,   0.10000,   0.10000  )

     Band symmetry, C_3v (3m)   point group:

     e(  1 -  1) =     -5.74862  eV     1   --> A_1  L_1       
     e(  2 -  2) =      4.90912  eV     1   --> A_1  L_1       
     e(  3 -  4) =      5.85478  eV     2   --> E    L_3       
     e(  5 -  5) =      8.59728  eV     1   --> A_1  L_1       
     e(  6 -  7) =      8.90200  eV     2   --> E    L_3       
     e(  8 -  8) =     10.24446  eV     1   --> A_1  L_1       

 **************************************************************************

 **************************************************************************

                    xk=(  -0.08333,   0.08333,   0.08333  )

     Band symmetry, C_3v (3m)   point group:

     e(  1 -  1) =     -5.78856  eV     1   --> A_1  L_1       
     e(  2 -  2) =      5.19536  eV     1   --> A_1  L_1       
     e(  3 -  4) =      5.90952  eV     2   --> E    L_3       
     e(  5 -  5) =      8.63599  eV     1   --> A_1  L_1       
     e(  6 -  7) =      8.82154  eV     2   --> E    L_3       
     e(  8 -  8) =      9.98596  eV     1   --> A_1  L_1       

 **************************************************************************

 **************************************************************************

                    xk=(  -0.06667,   0.06667,   0.06667  )

     Band symmetry, C_3v (3m)   point group:

     e(  1 -  1) =     -5.82131  eV     1   --> A_1  L_1       
     e(  2 -  2) =      5.46106  eV     1   --> A_1  L_1       
     e(  3 -  4) =      5.95781  eV     2   --> E    L_3       
     e(  5 -  5) =      8.65927  eV     1   --> A_1  L_1       
     e(  6 -  7) =      8.75047  eV     2   --> E    L_3       
     e(  8 -  8) =      9.75428  eV     1   --> A_1  L_1       

 **************************************************************************

 **************************************************************************

                    xk=(  -0.05000,   0.05000,   0.05000  )

     Band symmetry, C_3v (3m)   point group:

     e(  1 -  1) =     -5.84682  eV     1   --> A_1  L_1       
     e(  2 -  2) =      5.69563  eV     1   --> A_1  L_1       
     e(  3 -  4) =      5.99790  eV     2   --> E    L_3       
     e(  5 -  5) =      8.66279  eV     1   --> A_1  L_1       
     e(  6 -  7) =      8.69163  eV     2   --> E    L_3       
     e(  8 -  8) =      9.56278  eV     1   --> A_1  L_1       

 **************************************************************************

 **************************************************************************

                    xk=(  -0.03333,   0.03333,   0.03333  )

     Band symmetry, C_3v (3m)   point group:

     e(  1 -  1) =     -5.86506  eV     1   --> A_1  L_1       
     e(  2 -  2) =      5.88438  eV     1   --> A_1  L_1       
     e(  3 -  4) =      6.02805  eV     2   --> E    L_3       
     e(  5 -  5) =      8.64666  eV     1   --> A_1  L_1       
     e(  6 -  7) =      8.64753  eV     2   --> E    L_3       
     e(  8 -  8) =      9.42459  eV     1   --> A_1  L_1       

 **************************************************************************

 **************************************************************************

                    xk=(  -0.01667,   0.01667,   0.01667  )

     Band symmetry, C_3v (3m)   point group:

     e(  1 -  1) =     -5.87602  eV     1   --> A_1  L_1       
     e(  2 -  2) =      6.00918  eV     1   --> A_1  L_1       
     e(  3 -  4) =      6.04681  eV     2   --> E    L_3       
     e(  5 -  6) =      8.62018  eV     2   --> E    L_3       
     e(  7 -  7) =      8.62254  eV     1   --> A_1  L_1       
     e(  8 -  8) =      9.34513  eV     1   --> A_1  L_1       

 **************************************************************************

 **************************************************************************

                    xk=(   0.00000,   0.00000,   0.00000  )

     point group O_h (m-3m) 
     there are 10 classes
     the character table:

       E     8C3   3C2   6C4   6C2'  i     8S6   3s_h  6S4   6s_d 
A_1g   1.00  1.00  1.00  1.00  1.00  1.00  1.00  1.00  1.00  1.00
A_2g   1.00  1.00  1.00 -1.00 -1.00  1.00  1.00  1.00 -1.00 -1.00
E_g    2.00 -1.00  2.00  0.00  0.00  2.00 -1.00  2.00  0.00  0.00
T_1g   3.00  0.00 -1.00  1.00 -1.00  3.00  0.00 -1.00  1.00 -1.00
T_2g   3.00  0.00 -1.00 -1.00  1.00  3.00  0.00 -1.00 -1.00  1.00
A_1u   1.00  1.00  1.00  1.00  1.00 -1.00 -1.00 -1.00 -1.00 -1.00
A_2u   1.00  1.00  1.00 -1.00 -1.00 -1.00 -1.00 -1.00  1.00  1.00
E_u    2.00 -1.00  2.00  0.00  0.00 -2.00  1.00 -2.00  0.00  0.00
T_1u   3.00  0.00 -1.00  1.00 -1.00 -3.00  0.00  1.00 -1.00  1.00
T_2u   3.00  0.00 -1.00 -1.00  1.00 -3.00  0.00  1.00  1.00 -1.00

     the symmetry operations in each class and the name of the first element:

     E        1
                                                                 
     8C3     17   19   20   18   24   21   22   23
                                                                 
     3C2      2    4    3
                                                                 
     6C4      7    8   15   16   12   11
                                                                 
     6C2'     5    6   14   13   10    9
                                                                 
     i       25
                                                                 
     8S6     41   43   44   42   48   45   46   47
                                                                 
     3s_h    26   28   27
                                                                 
     6S4     31   32   39   40   36   35
                                                                 
     6s_d    29   30   38   37   34   33
                                                                 

     Band symmetry, O_h (m-3m)  point group:

     e(  1 -  1) =     -5.87967  eV     1   --> A_1g G_1   G_1+
     e(  2 -  4) =      6.05318  eV     3   --> T_2g G_25' G_5+
     e(  5 -  7) =      8.61092  eV     3   --> T_1u G_15  G_4-
     e(  8 -  8) =      9.31992  eV     1   --> A_2u G_2'  G_2-

 **************************************************************************

 **************************************************************************

                    xk=(  -0.03333,   0.00000,   0.00000  )

     point group C_4v (4mm) 
     there are  5 classes
     the character table:

       E     2C4   C2    2s_v  2s_d 
A_1    1.00  1.00  1.00  1.00  1.00
A_2    1.00  1.00  1.00 -1.00 -1.00
B_1    1.00 -1.00  1.00  1.00 -1.00
B_2    1.00 -1.00  1.00 -1.00  1.00
E      2.00  0.00 -2.00  0.00  0.00

     the symmetry operations in each class and the name of the first element:

     E        1
                                                                 
     2C4      3    4
                                                                 
     C2       2
                                                                 
     2s_v     5    6
                                                                 
     2s_d     7    8
                                                                 

     Band symmetry, C_4v (4mm)  point group:

     e(  1 -  1) =     -5.87480  eV     1   --> A_1  G_1 D_1   
     e(  2 -  2) =      6.01970  eV     1   --> B_2  G_4 D_2'  
     e(  3 -  4) =      6.03202  eV     2   --> E    G_5 D_5   
     e(  5 -  5) =      8.59820  eV     1   --> A_1  G_1 D_1   
     e(  6 -  7) =      8.63794  eV     2   --> E    G_5 D_5   
     e(  8 -  8) =      9.35258  eV     1   --> B_2  G_4 D_2'  

 **************************************************************************

 **************************************************************************

                    xk=(  -0.06667,   0.00000,   0.00000  )

     Band symmetry, C_4v (4mm)  point group:

     e(  1 -  1) =     -5.86019  eV     1   --> A_1  G_1 D_1   
     e(  2 -  2) =      5.92326  eV     1   --> B_2  G_4 D_2'  
     e(  3 -  4) =      5.97118  eV     2   --> E    G_5 D_5   
     e(  5 -  5) =      8.56077  eV     1   --> A_1  G_1 D_1   
     e(  6 -  7) =      8.71636  eV     2   --> E    G_5 D_5   
     e(  8 -  8) =      9.44602  eV     1   --> B_2  G_4 D_2'  

 **************************************************************************

 **************************************************************************

                    xk=(  -0.10000,   0.00000,   0.00000  )

     Band symmetry, C_4v (4mm)  point group:

     e(  1 -  1) =     -5.83586  eV     1   --> A_1  G_1 D_1   
     e(  2 -  2) =      5.77380  eV     1   --> B_2  G_4 D_2'  
     e(  3 -  4) =      5.87733  eV     2   --> E    G_5 D_5   
     e(  5 -  5) =      8.50070  eV     1   --> A_1  G_1 D_1   
     e(  6 -  7) =      8.83945  eV     2   --> E    G_5 D_5   
     e(  8 -  8) =      9.58838  eV     1   --> B_2  G_4 D_2'  

 **************************************************************************

 **************************************************************************

                    xk=(  -0.13333,   0.00000,   0.00000  )

     Band symmetry, C_4v (4mm)  point group:

     e(  1 -  1) =     -5.80180  eV     1   --> A_1  G_1 D_1   
     e(  2 -  2) =      5.58319  eV     1   --> B_2  G_4 D_2'  
     e(  3 -  4) =      5.75866  eV     2   --> E    G_5 D_5   
     e(  5 -  5) =      8.42100  eV     1   --> A_1  G_1 D_1   
     e(  6 -  7) =      8.99897  eV     2   --> E    G_5 D_5   
     e(  8 -  8) =      9.76397  eV     1   --> B_2  G_4 D_2'  

 **************************************************************************

 **************************************************************************

                    xk=(  -0.16667,   0.00000,   0.00000  )

     Band symmetry, C_4v (4mm)  point group:

     e(  1 -  1) =     -5.75806  eV     1   --> A_1  G_1 D_1   
     e(  2 -  2) =      5.36218  eV     1   --> B_2  G_4 D_2'  
     e(  3 -  4) =      5.62284  eV     2   --> E    G_5 D_5   
     e(  5 -  5) =      8.32522  eV     1   --> A_1  G_1 D_1   
     e(  6 -  7) =      9.18717  eV     2   --> E    G_5 D_5   
     e(  8 -  8) =      9.95524  eV     1   --> B_2  G_4 D_2'  

 **************************************************************************

 **************************************************************************

                    xk=(  -0.20000,   0.00000,   0.00000  )

     Band symmetry, C_4v (4mm)  point group:

     e(  1 -  1) =     -5.70466  eV     1   --> A_1  G_1 D_1   
     e(  2 -  2) =      5.11919  eV     1   --> B_2  G_4 D_2'  
     e(  3 -  4) =      5.47611  eV     2   --> E    G_5 D_5   
     e(  5 -  5) =      8.21700  eV     1   --> A_1  G_1 D_1   
     e(  6 -  7) =      9.39766  eV     2   --> E    G_5 D_5   
     e(  8 -  8) =     10.14172  eV     1   --> B_2  G_4 D_2'  

 **************************************************************************

 **************************************************************************

                    xk=(  -0.23333,   0.00000,   0.00000  )

     Band symmetry, C_4v (4mm)  point group:

     e(  1 -  1) =     -5.64163  eV     1   --> A_1  G_1 D_1   
     e(  2 -  2) =      4.86044  eV     1   --> B_2  G_4 D_2'  
     e(  3 -  4) =      5.32325  eV     2   --> E    G_5 D_5   
     e(  5 -  5) =      8.09984  eV     1   --> A_1  G_1 D_1   
     e(  6 -  7) =      9.62557  eV     2   --> E    G_5 D_5   
     e(  8 -  8) =     10.29735  eV     1   --> B_2  G_4 D_2'  

 **************************************************************************

 **************************************************************************

                    xk=(  -0.26667,   0.00000,   0.00000  )

     Band symmetry, C_4v (4mm)  point group:

     e(  1 -  1) =     -5.56899  eV     1   --> A_1  G_1 D_1   
     e(  2 -  2) =      4.59034  eV     1   --> B_2  G_4 D_2'  
     e(  3 -  4) =      5.16779  eV     2   --> E    G_5 D_5   
     e(  5 -  5) =      7.97689  eV     1   --> A_1  G_1 D_1   
     e(  6 -  7) =      9.86723  eV     2   --> E    G_5 D_5   
     e(  8 -  8) =     10.38880  eV     1   --> B_2  G_4 D_2'  

 **************************************************************************

 **************************************************************************

                    xk=(  -0.30000,   0.00000,   0.00000  )

     Band symmetry, C_4v (4mm)  point group:

     e(  1 -  1) =     -5.48681  eV     1   --> A_1  G_1 D_1   
     e(  2 -  2) =      4.31203  eV     1   --> B_2  G_4 D_2'  
     e(  3 -  4) =      5.01232  eV     2   --> E    G_5 D_5   
     e(  5 -  5) =      7.85090  eV     1   --> A_1  G_1 D_1   
     e(  6 -  7) =     10.11990  eV     2   --> E    G_5 D_5   
     e(  8 -  8) =     10.38628  eV     1   --> B_2  G_4 D_2'  

 **************************************************************************

 **************************************************************************

                    xk=(  -0.33333,   0.00000,   0.00000  )

     Band symmetry, C_4v (4mm)  point group:

     e(  1 -  1) =     -5.39513  eV     1   --> A_1  G_1 D_1   
     e(  2 -  2) =      4.02769  eV     1   --> B_2  G_4 D_2'  
     e(  3 -  4) =      4.85877  eV     2   --> E    G_5 D_5   
     e(  5 -  5) =      7.72421  eV     1   --> A_1  G_1 D_1   
     e(  6 -  6) =     10.28513  eV     1   --> B_2  G_4 D_2'  
     e(  7 -  8) =     10.38150  eV     2   --> E    G_5 D_5   

 **************************************************************************

 **************************************************************************

                    xk=(  -0.36667,   0.00000,   0.00000  )

     Band symmetry, C_4v (4mm)  point group:

     e(  1 -  1) =     -5.29401  eV     1   --> A_1  G_1 D_1   
     e(  2 -  2) =      3.73891  eV     1   --> B_2  G_4 D_2'  
     e(  3 -  4) =      4.70859  eV     2   --> E    G_5 D_5   
     e(  5 -  5) =      7.59878  eV     1   --> A_1  G_1 D_1   
     e(  6 -  6) =     10.10875  eV     1   --> B_2  G_4 D_2'  
     e(  7 -  8) =     10.65047  eV     2   --> E    G_5 D_5   

 **************************************************************************

 **************************************************************************

                    xk=(  -0.40000,   0.00000,   0.00000  )

     Band symmetry, C_4v (4mm)  point group:

     e(  1 -  1) =     -5.18352  eV     1   --> A_1  G_1 D_1   
     e(  2 -  2) =      3.44688  eV     1   --> B_2  G_4 D_2'  
     e(  3 -  4) =      4.56288  eV     2   --> E    G_5 D_5   
     e(  5 -  5) =      7.47629  eV     1   --> A_1  G_1 D_1   
     e(  6 -  6) =      9.88701  eV     1   --> B_2  G_4 D_2'  
     e(  7 -  8) =     10.92558  eV     2   --> E    G_5 D_5   

 **************************************************************************

 **************************************************************************

                    xk=(  -0.43333,   0.00000,   0.00000  )

     Band symmetry, C_4v (4mm)  point group:

     e(  1 -  1) =     -5.06375  eV     1   --> A_1  G_1 D_1   
     e(  2 -  2) =      3.15244  eV     1   --> B_2  G_4 D_2'  
     e(  3 -  4) =      4.42247  eV     2   --> E    G_5 D_5   
     e(  5 -  5) =      7.35809  eV     1   --> A_1  G_1 D_1   
     e(  6 -  6) =      9.64233  eV     1   --> B_2  G_4 D_2'  
     e(  7 -  8) =     11.20588  eV     2   --> E    G_5 D_5   

 **************************************************************************

 **************************************************************************

                    xk=(  -0.46667,   0.00000,   0.00000  )

     Band symmetry, C_4v (4mm)  point group:

     e(  1 -  1) =     -4.93476  eV     1   --> A_1  G_1 D_1   
     e(  2 -  2) =      2.85631  eV     1   --> B_2  G_4 D_2'  
     e(  3 -  4) =      4.28804  eV     2   --> E    G_5 D_5   
     e(  5 -  5) =      7.24538  eV     1   --> A_1  G_1 D_1   
     e(  6 -  6) =      9.38877  eV     1   --> B_2  G_4 D_2'  
     e(  7 -  8) =     11.49062  eV     2   --> E    G_5 D_5   

 **************************************************************************

 **************************************************************************

                    xk=(  -0.50000,   0.00000,   0.00000  )

     Band symmetry, C_4v (4mm)  point group:

     e(  1 -  1) =     -4.79665  eV     1   --> A_1  G_1 D_1   
     e(  2 -  2) =      2.55904  eV     1   --> B_2  G_4 D_2'  
     e(  3 -  4) =      4.16011  eV     2   --> E    G_5 D_5   
     e(  5 -  5) =      7.13913  eV     1   --> A_1  G_1 D_1   
     e(  6 -  6) =      9.13485  eV     1   --> B_2  G_4 D_2'  
     e(  7 -  8) =     11.77920  eV     2   --> E    G_5 D_5   

 **************************************************************************

 **************************************************************************

                    xk=(  -0.53333,   0.00000,   0.00000  )

     Band symmetry, C_4v (4mm)  point group:

     e(  1 -  1) =     -4.64953  eV     1   --> A_1  G_1 D_1   
     e(  2 -  2) =      2.26113  eV     1   --> B_2  G_4 D_2'  
     e(  3 -  4) =      4.03913  eV     2   --> E    G_5 D_5   
     e(  5 -  5) =      7.04016  eV     1   --> A_1  G_1 D_1   
     e(  6 -  6) =      8.88583  eV     1   --> B_2  G_4 D_2'  
     e(  7 -  8) =     12.07118  eV     2   --> E    G_5 D_5   

 **************************************************************************

 **************************************************************************

                    xk=(  -0.56667,   0.00000,   0.00000  )

     Band symmetry, C_4v (4mm)  point group:

     e(  1 -  1) =     -4.49352  eV     1   --> A_1  G_1 D_1   
     e(  2 -  2) =      1.96302  eV     1   --> B_2  G_4 D_2'  
     e(  3 -  4) =      3.92543  eV     2   --> E    G_5 D_5   
     e(  5 -  5) =      6.94920  eV     1   --> A_1  G_1 D_1   
     e(  6 -  6) =      8.64509  eV     1   --> B_2  G_4 D_2'  
     e(  7 -  8) =     12.36617  eV     2   --> E    G_5 D_5   

 **************************************************************************

 **************************************************************************

                    xk=(  -0.60000,   0.00000,   0.00000  )

     Band symmetry, C_4v (4mm)  point group:

     e(  1 -  1) =     -4.32873  eV     1   --> A_1  G_1 D_1   
     e(  2 -  2) =      1.66515  eV     1   --> B_2  G_4 D_2'  
     e(  3 -  4) =      3.81930  eV     2   --> E    G_5 D_5   
     e(  5 -  5) =      6.86686  eV     1   --> A_1  G_1 D_1   
     e(  6 -  6) =      8.41481  eV     1   --> B_2  G_4 D_2'  
     e(  7 -  8) =     12.66390  eV     2   --> E    G_5 D_5   

 **************************************************************************

 **************************************************************************

                    xk=(  -0.63333,   0.00000,   0.00000  )

     Band symmetry, C_4v (4mm)  point group:

     e(  1 -  1) =     -4.15530  eV     1   --> A_1  G_1 D_1   
     e(  2 -  2) =      1.36796  eV     1   --> B_2  G_4 D_2'  
     e(  3 -  4) =      3.72098  eV     2   --> E    G_5 D_5   
     e(  5 -  5) =      6.79369  eV     1   --> A_1  G_1 D_1   
     e(  6 -  6) =      8.19650  eV     1   --> B_2  G_4 D_2'  
     e(  7 -  8) =     12.96417  eV     2   --> E    G_5 D_5   

 **************************************************************************

 **************************************************************************

                    xk=(  -0.66667,   0.00000,   0.00000  )

     Band symmetry, C_4v (4mm)  point group:

     e(  1 -  1) =     -3.97338  eV     1   --> A_1  G_1 D_1   
     e(  2 -  2) =      1.07188  eV     1   --> B_2  G_4 D_2'  
     e(  3 -  4) =      3.63068  eV     2   --> E    G_5 D_5   
     e(  5 -  5) =      6.73018  eV     1   --> A_1  G_1 D_1   
     e(  6 -  6) =      7.99112  eV     1   --> B_2  G_4 D_2'  
     e(  7 -  8) =     13.26677  eV     2   --> E    G_5 D_5   

 **************************************************************************

 **************************************************************************

                    xk=(  -0.70000,   0.00000,   0.00000  )

     Band symmetry, C_4v (4mm)  point group:

     e(  1 -  1) =     -3.78315  eV     1   --> A_1  G_1 D_1   
     e(  2 -  2) =      0.77734  eV     1   --> B_2  G_4 D_2'  
     e(  3 -  4) =      3.54855  eV     2   --> E    G_5 D_5   
     e(  5 -  5) =      6.67675  eV     1   --> A_1  G_1 D_1   
     e(  6 -  6) =      7.79930  eV     1   --> B_2  G_4 D_2'  
     e(  7 -  8) =     13.57153  eV     2   --> E    G_5 D_5   

 **************************************************************************

 **************************************************************************

                    xk=(  -0.73333,   0.00000,   0.00000  )

     Band symmetry, C_4v (4mm)  point group:

     e(  1 -  1) =     -3.58476  eV     1   --> A_1  G_1 D_1   
     e(  2 -  2) =      0.48480  eV     1   --> B_2  G_4 D_2'  
     e(  3 -  4) =      3.47475  eV     2   --> E    G_5 D_5   
     e(  5 -  5) =      6.63382  eV     1   --> A_1  G_1 D_1   
     e(  6 -  6) =      7.62147  eV     1   --> B_2  G_4 D_2'  
     e(  7 -  8) =     13.87825  eV     2   --> E    G_5 D_5   

 **************************************************************************

 **************************************************************************

                    xk=(  -0.76667,   0.00000,   0.00000  )

     Band symmetry, C_4v (4mm)  point group:

     e(  1 -  1) =     -3.37842  eV     1   --> A_1  G_1 D_1   
     e(  2 -  2) =      0.19469  eV     1   --> B_2  G_4 D_2'  
     e(  3 -  4) =      3.40938  eV     2   --> E    G_5 D_5   
     e(  5 -  5) =      6.60173  eV     1   --> A_1  G_1 D_1   
     e(  6 -  6) =      7.45782  eV     1   --> B_2  G_4 D_2'  
     e(  7 -  8) =     14.18661  eV     2   --> E    G_5 D_5   

 **************************************************************************

 **************************************************************************

                    xk=(  -0.80000,   0.00000,   0.00000  )

     Band symmetry, C_4v (4mm)  point group:

     e(  1 -  1) =     -3.16433  eV     1   --> A_1  G_1 D_1   
     e(  2 -  2) =     -0.09254  eV     1   --> B_2  G_4 D_2'  
     e(  3 -  4) =      3.35255  eV     2   --> E    G_5 D_5   
     e(  5 -  5) =      6.58084  eV     1   --> A_1  G_1 D_1   
     e(  6 -  6) =      7.30846  eV     1   --> B_2  G_4 D_2'  
     e(  7 -  8) =     14.49610  eV     2   --> E    G_5 D_5   

 **************************************************************************

 **************************************************************************

                    xk=(  -0.83333,   0.00000,   0.00000  )

     Band symmetry, C_4v (4mm)  point group:

     e(  1 -  1) =     -2.94271  eV     1   --> A_1  G_1 D_1   
     e(  2 -  2) =     -0.37642  eV     1   --> B_2  G_4 D_2'  
     e(  3 -  4) =      3.30433  eV     2   --> E    G_5 D_5   
     e(  5 -  5) =      6.57149  eV     1   --> A_1  G_1 D_1   
     e(  6 -  6) =      7.17341  eV     1   --> B_2  G_4 D_2'  
     e(  7 -  8) =     14.80581  eV     2   --> E    G_5 D_5   

 **************************************************************************

 **************************************************************************

                    xk=(  -0.86667,   0.00000,   0.00000  )

     Band symmetry, C_4v (4mm)  point group:

     e(  1 -  1) =     -2.71382  eV     1   --> A_1  G_1 D_1   
     e(  2 -  2) =     -0.65656  eV     1   --> B_2  G_4 D_2'  
     e(  3 -  4) =      3.26480  eV     2   --> E    G_5 D_5   
     e(  5 -  5) =      6.57393  eV     1   --> A_1  G_1 D_1   
     e(  6 -  6) =      7.05253  eV     1   --> B_2  G_4 D_2'  
     e(  7 -  8) =     15.11389  eV     2   --> E    G_5 D_5   

 **************************************************************************

 **************************************************************************

                    xk=(  -0.90000,   0.00000,   0.00000  )

     Band symmetry, C_4v (4mm)  point group:

     e(  1 -  1) =     -2.47792  eV     1   --> A_1  G_1 D_1   
     e(  2 -  2) =     -0.93251  eV     1   --> B_2  G_4 D_2'  
     e(  3 -  4) =      3.23399  eV     2   --> E    G_5 D_5   
     e(  5 -  5) =      6.58850  eV     1   --> A_1  G_1 D_1   
     e(  6 -  6) =      6.94571  eV     1   --> B_2  G_4 D_2'  
     e(  7 -  8) =     15.41641  eV     2   --> E    G_5 D_5   

 **************************************************************************

 **************************************************************************

                    xk=(  -0.93333,   0.00000,   0.00000  )

     Band symmetry, C_4v (4mm)  point group:

     e(  1 -  1) =     -2.23529  eV     1   --> A_1  G_1 D_1   
     e(  2 -  2) =     -1.20384  eV     1   --> B_2  G_4 D_2'  
     e(  3 -  4) =      3.21197  eV     2   --> E    G_5 D_5   
     e(  5 -  5) =      6.61547  eV     1   --> A_1  G_1 D_1   
     e(  6 -  6) =      6.85277  eV     1   --> B_2  G_4 D_2'  
     e(  7 -  8) =     15.70344  eV     2   --> E    G_5 D_5   

 **************************************************************************

 **************************************************************************

                    xk=(  -0.96667,   0.00000,   0.00000  )

     Band symmetry, C_4v (4mm)  point group:

     e(  1 -  1) =     -1.98622  eV     1   --> A_1  G_1 D_1   
     e(  2 -  2) =     -1.47015  eV     1   --> B_2  G_4 D_2'  
     e(  3 -  4) =      3.19874  eV     2   --> E    G_5 D_5   
     e(  5 -  5) =      6.65512  eV     1   --> A_1  G_1 D_1   
     e(  6 -  6) =      6.77352  eV     1   --> B_2  G_4 D_2'  
     e(  7 -  8) =     15.94536  eV     2   --> E    G_5 D_5   

 **************************************************************************

 **************************************************************************

                    xk=(  -1.00000,   0.00000,   0.00000  )

     zone border point and non-symmorphic group 
     symmetry decomposition not available

 **************************************************************************

 **************************************************************************

                    xk=(  -1.00000,   0.00833,   0.00833  )

     zone border point and non-symmorphic group 
     symmetry decomposition not available

 **************************************************************************

 **************************************************************************

                    xk=(  -1.00000,   0.01667,   0.01667  )

     zone border point and non-symmorphic group 
     symmetry decomposition not available

 **************************************************************************

 **************************************************************************

                    xk=(  -1.00000,   0.02500,   0.02500  )

     zone border point and non-symmorphic group 
     symmetry decomposition not available

 **************************************************************************

 **************************************************************************

                    xk=(  -1.00000,   0.03333,   0.03333  )

     zone border point and non-symmorphic group 
     symmetry decomposition not available

 **************************************************************************

 **************************************************************************

                    xk=(  -1.00000,   0.04167,   0.04167  )

     zone border point and non-symmorphic group 
     symmetry decomposition not available

 **************************************************************************

 **************************************************************************

                    xk=(  -1.00000,   0.05000,   0.05000  )

     zone border point and non-symmorphic group 
     symmetry decomposition not available

 **************************************************************************

 **************************************************************************

                    xk=(  -1.00000,   0.05833,   0.05833  )

     zone border point and non-symmorphic group 
     symmetry decomposition not available

 **************************************************************************

 **************************************************************************

                    xk=(  -1.00000,   0.06667,   0.06667  )

     zone border point and non-symmorphic group 
     symmetry decomposition not available

 **************************************************************************

 **************************************************************************

                    xk=(  -1.00000,   0.07500,   0.07500  )

     zone border point and non-symmorphic group 
     symmetry decomposition not available

 **************************************************************************

 **************************************************************************

                    xk=(  -1.00000,   0.08333,   0.08333  )

     zone border point and non-symmorphic group 
     symmetry decomposition not available

 **************************************************************************

 **************************************************************************

                    xk=(  -1.00000,   0.09167,   0.09167  )

     zone border point and non-symmorphic group 
     symmetry decomposition not available

 **************************************************************************

 **************************************************************************

                    xk=(  -1.00000,   0.10000,   0.10000  )

     zone border point and non-symmorphic group 
     symmetry decomposition not available

 **************************************************************************

 **************************************************************************

                    xk=(  -1.00000,   0.10833,   0.10833  )

     zone border point and non-symmorphic group 
     symmetry decomposition not available

 **************************************************************************

 **************************************************************************

                    xk=(  -1.00000,   0.11667,   0.11667  )

     zone border point and non-symmorphic group 
     symmetry decomposition not available

 **************************************************************************

 **************************************************************************

                    xk=(  -1.00000,   0.12500,   0.12500  )

     zone border point and non-symmorphic group 
     symmetry decomposition not available

 **************************************************************************

 **************************************************************************

                    xk=(  -1.00000,   0.13333,   0.13333  )

     zone border point and non-symmorphic group 
     symmetry decomposition not available

 **************************************************************************

 **************************************************************************

                    xk=(  -1.00000,   0.14167,   0.14167  )

     zone border point and non-symmorphic group 
     symmetry decomposition not available

 **************************************************************************

 **************************************************************************

                    xk=(  -1.00000,   0.15000,   0.15000  )

     zone border point and non-symmorphic group 
     symmetry decomposition not available

 **************************************************************************

 **************************************************************************

                    xk=(  -1.00000,   0.15833,   0.15833  )

     zone border point and non-symmorphic group 
     symmetry decomposition not available

 **************************************************************************

 **************************************************************************

                    xk=(  -1.00000,   0.16667,   0.16667  )

     zone border point and non-symmorphic group 
     symmetry decomposition not available

 **************************************************************************

 **************************************************************************

                    xk=(  -1.00000,   0.17500,   0.17500  )

     zone border point and non-symmorphic group 
     symmetry decomposition not available

 **************************************************************************

 **************************************************************************

                    xk=(  -1.00000,   0.18333,   0.18333  )

     zone border point and non-symmorphic group 
     symmetry decomposition not available

 **************************************************************************

 **************************************************************************

                    xk=(  -1.00000,   0.19167,   0.19167  )

     zone border point and non-symmorphic group 
     symmetry decomposition not available

 **************************************************************************

 **************************************************************************

                    xk=(  -1.00000,   0.20000,   0.20000  )

     zone border point and non-symmorphic group 
     symmetry decomposition not available

 **************************************************************************

 **************************************************************************

                    xk=(  -1.00000,   0.20833,   0.20833  )

     zone border point and non-symmorphic group 
     symmetry decomposition not available

 **************************************************************************

 **************************************************************************

                    xk=(  -1.00000,   0.21667,   0.21667  )

     zone border point and non-symmorphic group 
     symmetry decomposition not available

 **************************************************************************

 **************************************************************************

                    xk=(  -1.00000,   0.22500,   0.22500  )

     zone border point and non-symmorphic group 
     symmetry decomposition not available

 **************************************************************************

 **************************************************************************

                    xk=(  -1.00000,   0.23333,   0.23333  )

     zone border point and non-symmorphic group 
     symmetry decomposition not available

 **************************************************************************

 **************************************************************************

                    xk=(  -1.00000,   0.24167,   0.24167  )

     zone border point and non-symmorphic group 
     symmetry decomposition not available

 **************************************************************************

 **************************************************************************

                    xk=(  -1.00000,   0.25000,   0.25000  )

     zone border point and non-symmorphic group 
     symmetry decomposition not available

 **************************************************************************

 **************************************************************************

                    xk=(  -0.99167,   0.26667,   0.24167  )

     point group C_1 (1)    
     there are  1 classes
     the character table:

       E    
A      1.00

     the symmetry operations in each class and the name of the first element:

     E        1
                                                                 

     Band symmetry, C_1 (1)     point group:

     e(  1 -  1) =     -2.15532  eV     1   --> A              
     e(  2 -  2) =     -1.12280  eV     1   --> A              
     e(  3 -  3) =      1.70784  eV     1   --> A              
     e(  4 -  4) =      3.62819  eV     1   --> A              
     e(  5 -  5) =      7.23578  eV     1   --> A              
     e(  6 -  6) =     10.21347  eV     1   --> A              
     e(  7 -  7) =     13.38106  eV     1   --> A              
     e(  8 -  8) =     13.92863  eV     1   --> A              

 **************************************************************************

 **************************************************************************

                    xk=(  -0.98333,   0.28333,   0.23333  )

     Band symmetry, C_1 (1)     point group:

     e(  1 -  1) =     -2.17627  eV     1   --> A              
     e(  2 -  2) =     -1.09944  eV     1   --> A              
     e(  3 -  3) =      1.70094  eV     1   --> A              
     e(  4 -  4) =      3.61539  eV     1   --> A              
     e(  5 -  5) =      7.29414  eV     1   --> A              
     e(  6 -  6) =     10.30091  eV     1   --> A              
     e(  7 -  7) =     13.19921  eV     1   --> A              
     e(  8 -  8) =     13.82354  eV     1   --> A              

 **************************************************************************

 **************************************************************************

                    xk=(  -0.97500,   0.30000,   0.22500  )

     Band symmetry, C_1 (1)     point group:

     e(  1 -  1) =     -2.19787  eV     1   --> A              
     e(  2 -  2) =     -1.07471  eV     1   --> A              
     e(  3 -  3) =      1.69936  eV     1   --> A              
     e(  4 -  4) =      3.58654  eV     1   --> A              
     e(  5 -  5) =      7.37902  eV     1   --> A              
     e(  6 -  6) =     10.39066  eV     1   --> A              
     e(  7 -  7) =     12.97479  eV     1   --> A              
     e(  8 -  8) =     13.65857  eV     1   --> A              

 **************************************************************************

 **************************************************************************

                    xk=(  -0.96667,   0.31667,   0.21667  )

     Band symmetry, C_1 (1)     point group:

     e(  1 -  1) =     -2.21947  eV     1   --> A              
     e(  2 -  2) =     -1.04943  eV     1   --> A              
     e(  3 -  3) =      1.70308  eV     1   --> A              
     e(  4 -  4) =      3.54385  eV     1   --> A              
     e(  5 -  5) =      7.48834  eV     1   --> A              
     e(  6 -  6) =     10.48223  eV     1   --> A              
     e(  7 -  7) =     12.72820  eV     1   --> A              
     e(  8 -  8) =     13.49127  eV     1   --> A              

 **************************************************************************

 **************************************************************************

                    xk=(  -0.95833,   0.33333,   0.20833  )

     Band symmetry, C_1 (1)     point group:

     e(  1 -  1) =     -2.24054  eV     1   --> A              
     e(  2 -  2) =     -1.02436  eV     1   --> A              
     e(  3 -  3) =      1.71194  eV     1   --> A              
     e(  4 -  4) =      3.49003  eV     1   --> A              
     e(  5 -  5) =      7.61962  eV     1   --> A              
     e(  6 -  6) =     10.57471  eV     1   --> A              
     e(  7 -  7) =     12.47082  eV     1   --> A              
     e(  8 -  8) =     13.32899  eV     1   --> A              

 **************************************************************************

 **************************************************************************

                    xk=(  -0.95000,   0.35000,   0.20000  )

     Band symmetry, C_1 (1)     point group:

     e(  1 -  1) =     -2.26063  eV     1   --> A              
     e(  2 -  2) =     -1.00013  eV     1   --> A              
     e(  3 -  3) =      1.72567  eV     1   --> A              
     e(  4 -  4) =      3.42794  eV     1   --> A              
     e(  5 -  5) =      7.77035  eV     1   --> A              
     e(  6 -  6) =     10.66644  eV     1   --> A              
     e(  7 -  7) =     12.21026  eV     1   --> A              
     e(  8 -  8) =     13.17182  eV     1   --> A              

 **************************************************************************

 **************************************************************************

                    xk=(  -0.94167,   0.36667,   0.19167  )

     Band symmetry, C_1 (1)     point group:

     e(  1 -  1) =     -2.27937  eV     1   --> A              
     e(  2 -  2) =     -0.97726  eV     1   --> A              
     e(  3 -  3) =      1.74378  eV     1   --> A              
     e(  4 -  4) =      3.36049  eV     1   --> A              
     e(  5 -  5) =      7.93806  eV     1   --> A              
     e(  6 -  6) =     10.75394  eV     1   --> A              
     e(  7 -  7) =     11.95348  eV     1   --> A              
     e(  8 -  8) =     13.01917  eV     1   --> A              

 **************************************************************************

 **************************************************************************

                    xk=(  -0.93333,   0.38333,   0.18333  )

     Band symmetry, C_1 (1)     point group:

     e(  1 -  1) =     -2.29647  eV     1   --> A              
     e(  2 -  2) =     -0.95621  eV     1   --> A              
     e(  3 -  3) =      1.76561  eV     1   --> A              
     e(  4 -  4) =      3.29053  eV     1   --> A              
     e(  5 -  5) =      8.12050  eV     1   --> A              
     e(  6 -  6) =     10.82869  eV     1   --> A              
     e(  7 -  7) =     11.71112  eV     1   --> A              
     e(  8 -  8) =     12.87068  eV     1   --> A              

 **************************************************************************

 **************************************************************************

                    xk=(  -0.92500,   0.40000,   0.17500  )

     Band symmetry, C_1 (1)     point group:

     e(  1 -  1) =     -2.31170  eV     1   --> A              
     e(  2 -  2) =     -0.93735  eV     1   --> A              
     e(  3 -  3) =      1.79020  eV     1   --> A              
     e(  4 -  4) =      3.22089  eV     1   --> A              
     e(  5 -  5) =      8.31562  eV     1   --> A              
     e(  6 -  6) =     10.86683  eV     1   --> A              
     e(  7 -  7) =     11.50821  eV     1   --> A              
     e(  8 -  8) =     12.72638  eV     1   --> A              

 **************************************************************************

 **************************************************************************

                    xk=(  -0.91667,   0.41667,   0.16667  )

     Band symmetry, C_1 (1)     point group:

     e(  1 -  1) =     -2.32486  eV     1   --> A              
     e(  2 -  2) =     -0.92097  eV     1   --> A              
     e(  3 -  3) =      1.81625  eV     1   --> A              
     e(  4 -  4) =      3.15438  eV     1   --> A              
     e(  5 -  5) =      8.52157  eV     1   --> A              
     e(  6 -  6) =     10.81560  eV     1   --> A              
     e(  7 -  7) =     11.39816  eV     1   --> A              
     e(  8 -  8) =     12.58672  eV     1   --> A              

 **************************************************************************

 **************************************************************************

                    xk=(  -0.90833,   0.43333,   0.15833  )

     Band symmetry, C_1 (1)     point group:

     e(  1 -  1) =     -2.33582  eV     1   --> A              
     e(  2 -  2) =     -0.90730  eV     1   --> A              
     e(  3 -  3) =      1.84212  eV     1   --> A              
     e(  4 -  4) =      3.09388  eV     1   --> A              
     e(  5 -  5) =      8.73652  eV     1   --> A              
     e(  6 -  6) =     10.65422  eV     1   --> A              
     e(  7 -  7) =     11.40172  eV     1   --> A              
     e(  8 -  8) =     12.45278  eV     1   --> A              

 **************************************************************************

 **************************************************************************

                    xk=(  -0.90000,   0.45000,   0.15000  )

     Band symmetry, C_1 (1)     point group:

     e(  1 -  1) =     -2.34445  eV     1   --> A              
     e(  2 -  2) =     -0.89650  eV     1   --> A              
     e(  3 -  3) =      1.86581  eV     1   --> A              
     e(  4 -  4) =      3.04235  eV     1   --> A              
     e(  5 -  5) =      8.95846  eV     1   --> A              
     e(  6 -  6) =     10.43656  eV     1   --> A              
     e(  7 -  7) =     11.46419  eV     1   --> A              
     e(  8 -  8) =     12.32690  eV     1   --> A              

 **************************************************************************

 **************************************************************************

                    xk=(  -0.89167,   0.46667,   0.14167  )

     Band symmetry, C_1 (1)     point group:

     e(  1 -  1) =     -2.35067  eV     1   --> A              
     e(  2 -  2) =     -0.88870  eV     1   --> A              
     e(  3 -  3) =      1.88506  eV     1   --> A              
     e(  4 -  4) =      3.00272  eV     1   --> A              
     e(  5 -  5) =      9.18413  eV     1   --> A              
     e(  6 -  6) =     10.20272  eV     1   --> A              
     e(  7 -  7) =     11.54305  eV     1   --> A              
     e(  8 -  8) =     12.21429  eV     1   --> A              

 **************************************************************************

 **************************************************************************

                    xk=(  -0.88333,   0.48333,   0.13333  )

     Band symmetry, C_1 (1)     point group:

     e(  1 -  1) =     -2.35442  eV     1   --> A              
     e(  2 -  2) =     -0.88399  eV     1   --> A              
     e(  3 -  3) =      1.89772  eV     1   --> A              
     e(  4 -  4) =      2.97765  eV     1   --> A              
     e(  5 -  5) =      9.40354  eV     1   --> A              
     e(  6 -  6) =      9.97562  eV     1   --> A              
     e(  7 -  7) =     11.61250  eV     1   --> A              
     e(  8 -  8) =     12.12749  eV     1   --> A              

 **************************************************************************

 **************************************************************************

                    xk=(  -0.87500,   0.50000,   0.12500  )

     zone border point and non-symmorphic group 
     symmetry decomposition not available

 **************************************************************************

 **************************************************************************

                    xk=(  -0.86667,   0.51667,   0.11667  )

     point group C_1 (1)    
     there are  1 classes
     the character table:

       E    
A      1.00

     the symmetry operations in each class and the name of the first element:

     E        1
                                                                 

     Band symmetry, C_1 (1)     point group:

     e(  1 -  1) =     -2.35442  eV     1   --> A              
     e(  2 -  2) =     -0.88399  eV     1   --> A              
     e(  3 -  3) =      1.89772  eV     1   --> A              
     e(  4 -  4) =      2.97765  eV     1   --> A              
     e(  5 -  5) =      9.40354  eV     1   --> A              
     e(  6 -  6) =      9.97562  eV     1   --> A              
     e(  7 -  7) =     11.61250  eV     1   --> A              
     e(  8 -  8) =     12.12749  eV     1   --> A              

 **************************************************************************

 **************************************************************************

                    xk=(  -0.85833,   0.53333,   0.10833  )

     Band symmetry, C_1 (1)     point group:

     e(  1 -  1) =     -2.35067  eV     1   --> A              
     e(  2 -  2) =     -0.88870  eV     1   --> A              
     e(  3 -  3) =      1.88506  eV     1   --> A              
     e(  4 -  4) =      3.00272  eV     1   --> A              
     e(  5 -  5) =      9.18413  eV     1   --> A              
     e(  6 -  6) =     10.20272  eV     1   --> A              
     e(  7 -  7) =     11.54305  eV     1   --> A              
     e(  8 -  8) =     12.21429  eV     1   --> A              

 **************************************************************************

 **************************************************************************

                    xk=(  -0.85000,   0.55000,   0.10000  )

     Band symmetry, C_1 (1)     point group:

     e(  1 -  1) =     -2.34445  eV     1   --> A              
     e(  2 -  2) =     -0.89650  eV     1   --> A              
     e(  3 -  3) =      1.86581  eV     1   --> A              
     e(  4 -  4) =      3.04235  eV     1   --> A              
     e(  5 -  5) =      8.95846  eV     1   --> A              
     e(  6 -  6) =     10.43656  eV     1   --> A              
     e(  7 -  7) =     11.46419  eV     1   --> A              
     e(  8 -  8) =     12.32690  eV     1   --> A              

 **************************************************************************

 **************************************************************************

                    xk=(  -0.84167,   0.56667,   0.09167  )

     Band symmetry, C_1 (1)     point group:

     e(  1 -  1) =     -2.33582  eV     1   --> A              
     e(  2 -  2) =     -0.90730  eV     1   --> A              
     e(  3 -  3) =      1.84212  eV     1   --> A              
     e(  4 -  4) =      3.09388  eV     1   --> A              
     e(  5 -  5) =      8.73652  eV     1   --> A              
     e(  6 -  6) =     10.65422  eV     1   --> A              
     e(  7 -  7) =     11.40172  eV     1   --> A              
     e(  8 -  8) =     12.45278  eV     1   --> A              

 **************************************************************************

 **************************************************************************

                    xk=(  -0.83333,   0.58333,   0.08333  )

     Band symmetry, C_1 (1)     point group:

     e(  1 -  1) =     -2.32486  eV     1   --> A              
     e(  2 -  2) =     -0.92097  eV     1   --> A              
     e(  3 -  3) =      1.81625  eV     1   --> A              
     e(  4 -  4) =      3.15438  eV     1   --> A              
     e(  5 -  5) =      8.52157  eV     1   --> A              
     e(  6 -  6) =     10.81560  eV     1   --> A              
     e(  7 -  7) =     11.39816  eV     1   --> A              
     e(  8 -  8) =     12.58672  eV     1   --> A              

 **************************************************************************

 **************************************************************************

                    xk=(  -0.82500,   0.60000,   0.07500  )

     Band symmetry, C_1 (1)     point group:

     e(  1 -  1) =     -2.31170  eV     1   --> A              
     e(  2 -  2) =     -0.93735  eV     1   --> A              
     e(  3 -  3) =      1.79020  eV     1   --> A              
     e(  4 -  4) =      3.22089  eV     1   --> A              
     e(  5 -  5) =      8.31562  eV     1   --> A              
     e(  6 -  6) =     10.86683  eV     1   --> A              
     e(  7 -  7) =     11.50821  eV     1   --> A              
     e(  8 -  8) =     12.72638  eV     1   --> A              

 **************************************************************************

 **************************************************************************

                    xk=(  -0.81667,   0.61667,   0.06667  )

     Band symmetry, C_1 (1)     point group:

     e(  1 -  1) =     -2.29647  eV     1   --> A              
     e(  2 -  2) =     -0.95621  eV     1   --> A              
     e(  3 -  3) =      1.76561  eV     1   --> A              
     e(  4 -  4) =      3.29053  eV     1   --> A              
     e(  5 -  5) =      8.12050  eV     1   --> A              
     e(  6 -  6) =     10.82869  eV     1   --> A              
     e(  7 -  7) =     11.71112  eV     1   --> A              
     e(  8 -  8) =     12.87068  eV     1   --> A              

 **************************************************************************

 **************************************************************************

                    xk=(  -0.80833,   0.63333,   0.05833  )

     Band symmetry, C_1 (1)     point group:

     e(  1 -  1) =     -2.27937  eV     1   --> A              
     e(  2 -  2) =     -0.97726  eV     1   --> A              
     e(  3 -  3) =      1.74378  eV     1   --> A              
     e(  4 -  4) =      3.36049  eV     1   --> A              
     e(  5 -  5) =      7.93806  eV     1   --> A              
     e(  6 -  6) =     10.75394  eV     1   --> A              
     e(  7 -  7) =     11.95348  eV     1   --> A              
     e(  8 -  8) =     13.01917  eV     1   --> A              

 **************************************************************************

 **************************************************************************

                    xk=(  -0.80000,   0.65000,   0.05000  )

     Band symmetry, C_1 (1)     point group:

     e(  1 -  1) =     -2.26063  eV     1   --> A              
     e(  2 -  2) =     -1.00013  eV     1   --> A              
     e(  3 -  3) =      1.72567  eV     1   --> A              
     e(  4 -  4) =      3.42794  eV     1   --> A              
     e(  5 -  5) =      7.77035  eV     1   --> A              
     e(  6 -  6) =     10.66644  eV     1   --> A              
     e(  7 -  7) =     12.21026  eV     1   --> A              
     e(  8 -  8) =     13.17182  eV     1   --> A              

 **************************************************************************

 **************************************************************************

                    xk=(  -0.79167,   0.66667,   0.04167  )

     Band symmetry, C_1 (1)     point group:

     e(  1 -  1) =     -2.24054  eV     1   --> A              
     e(  2 -  2) =     -1.02436  eV     1   --> A              
     e(  3 -  3) =      1.71194  eV     1   --> A              
     e(  4 -  4) =      3.49003  eV     1   --> A              
     e(  5 -  5) =      7.61962  eV     1   --> A              
     e(  6 -  6) =     10.57471  eV     1   --> A              
     e(  7 -  7) =     12.47082  eV     1   --> A              
     e(  8 -  8) =     13.32899  eV     1   --> A              

 **************************************************************************

 **************************************************************************

                    xk=(  -0.78333,   0.68333,   0.03333  )

     Band symmetry, C_1 (1)     point group:

     e(  1 -  1) =     -2.21947  eV     1   --> A              
     e(  2 -  2) =     -1.04943  eV     1   --> A              
     e(  3 -  3) =      1.70308  eV     1   --> A              
     e(  4 -  4) =      3.54385  eV     1   --> A              
     e(  5 -  5) =      7.48834  eV     1   --> A              
     e(  6 -  6) =     10.48223  eV     1   --> A              
     e(  7 -  7) =     12.72820  eV     1   --> A              
     e(  8 -  8) =     13.49127  eV     1   --> A              

 **************************************************************************

 **************************************************************************

                    xk=(  -0.77500,   0.70000,   0.02500  )

     Band symmetry, C_1 (1)     point group:

     e(  1 -  1) =     -2.19787  eV     1   --> A              
     e(  2 -  2) =     -1.07471  eV     1   --> A              
     e(  3 -  3) =      1.69936  eV     1   --> A              
     e(  4 -  4) =      3.58654  eV     1   --> A              
     e(  5 -  5) =      7.37902  eV     1   --> A              
     e(  6 -  6) =     10.39066  eV     1   --> A              
     e(  7 -  7) =     12.97479  eV     1   --> A              
     e(  8 -  8) =     13.65857  eV     1   --> A              

 **************************************************************************

 **************************************************************************

                    xk=(  -0.76667,   0.71667,   0.01667  )

     Band symmetry, C_1 (1)     point group:

     e(  1 -  1) =     -2.17627  eV     1   --> A              
     e(  2 -  2) =     -1.09944  eV     1   --> A              
     e(  3 -  3) =      1.70094  eV     1   --> A              
     e(  4 -  4) =      3.61539  eV     1   --> A              
     e(  5 -  5) =      7.29414  eV     1   --> A              
     e(  6 -  6) =     10.30091  eV     1   --> A              
     e(  7 -  7) =     13.19921  eV     1   --> A              
     e(  8 -  8) =     13.82354  eV     1   --> A              

 **************************************************************************

 **************************************************************************

                    xk=(  -0.75833,   0.73333,   0.00833  )

     Band symmetry, C_1 (1)     point group:

     e(  1 -  1) =     -2.15532  eV     1   --> A              
     e(  2 -  2) =     -1.12280  eV     1   --> A              
     e(  3 -  3) =      1.70784  eV     1   --> A              
     e(  4 -  4) =      3.62819  eV     1   --> A              
     e(  5 -  5) =      7.23578  eV     1   --> A              
     e(  6 -  6) =     10.21347  eV     1   --> A              
     e(  7 -  7) =     13.38106  eV     1   --> A              
     e(  8 -  8) =     13.92863  eV     1   --> A              

 **************************************************************************

 **************************************************************************

                    xk=(  -0.75000,   0.75000,   0.00000  )

     point group C_2v (mm2) 
     there are  4 classes
     the character table:

       E     C2    s_v   s_v' 
A_1    1.00  1.00  1.00  1.00
A_2    1.00  1.00 -1.00 -1.00
B_1    1.00 -1.00  1.00 -1.00
B_2    1.00 -1.00 -1.00  1.00

     the symmetry operations in each class and the name of the first element:

     E        1
                                                                 
     C2       2
                                                                 
     s_v      3
                                                                 
     s_v'     4
                                                                 

     Band symmetry, C_2v (mm2)  point group:

     e(  1 -  1) =     -2.13579  eV     1   --> A_1  D_1  S_1  
     e(  2 -  2) =     -1.14382  eV     1   --> B_2  D_4  S_4  
     e(  3 -  3) =      1.72001  eV     1   --> A_1  D_1  S_1  
     e(  4 -  4) =      3.62339  eV     1   --> A_2  D_2  S_2  
     e(  5 -  5) =      7.20538  eV     1   --> B_2  D_4  S_4  
     e(  6 -  6) =     10.12871  eV     1   --> A_1  D_1  S_1  
     e(  7 -  7) =     13.48432  eV     1   --> B_1  D_3  S_3  
     e(  8 -  8) =     13.96926  eV     1   --> A_1  D_1  S_1  

 **************************************************************************

 **************************************************************************

                    xk=(  -0.72500,   0.72500,   0.00000  )

     Band symmetry, C_2v (mm2)  point group:

     e(  1 -  1) =     -2.25639  eV     1   --> A_1  D_1  S_1  
     e(  2 -  2) =     -1.02094  eV     1   --> B_2  D_4  S_4  
     e(  3 -  3) =      1.64813  eV     1   --> A_1  D_1  S_1  
     e(  4 -  4) =      3.71010  eV     1   --> A_2  D_2  S_2  
     e(  5 -  5) =      7.30632  eV     1   --> B_2  D_4  S_4  
     e(  6 -  6) =     10.63304  eV     1   --> A_1  D_1  S_1  
     e(  7 -  7) =     13.18179  eV     1   --> B_1  D_3  S_3  
     e(  8 -  8) =     13.66161  eV     1   --> A_1  D_1  S_1  

 **************************************************************************

 **************************************************************************

                    xk=(  -0.70000,   0.70000,   0.00000  )

     Band symmetry, C_2v (mm2)  point group:

     e(  1 -  1) =     -2.39468  eV     1   --> A_1  D_1  S_1  
     e(  2 -  2) =     -0.88654  eV     1   --> B_2  D_4  S_4  
     e(  3 -  3) =      1.60970  eV     1   --> A_1  D_1  S_1  
     e(  4 -  4) =      3.80360  eV     1   --> A_2  D_2  S_2  
     e(  5 -  5) =      7.41521  eV     1   --> B_2  D_4  S_4  
     e(  6 -  6) =     11.14048  eV     1   --> A_1  D_1  S_1  
     e(  7 -  7) =     12.88592  eV     1   --> B_1  D_3  S_3  
     e(  8 -  8) =     13.37256  eV     1   --> A_1  D_1  S_1  

 **************************************************************************

 **************************************************************************

                    xk=(  -0.67500,   0.67500,   0.00000  )

     Band symmetry, C_2v (mm2)  point group:

     e(  1 -  1) =     -2.54869  eV     1   --> A_1  D_1  S_1  
     e(  2 -  2) =     -0.74069  eV     1   --> B_2  D_4  S_4  
     e(  3 -  3) =      1.60375  eV     1   --> A_1  D_1  S_1  
     e(  4 -  4) =      3.90343  eV     1   --> A_2  D_2  S_2  
     e(  5 -  5) =      7.53147  eV     1   --> B_2  D_4  S_4  
     e(  6 -  6) =     11.63325  eV     1   --> A_1  D_1  S_1  
     e(  7 -  7) =     12.59753  eV     1   --> B_1  D_3  S_3  
     e(  8 -  8) =     13.11809  eV     1   --> A_1  D_1  S_1  

 **************************************************************************

 **************************************************************************

                    xk=(  -0.65000,   0.65000,   0.00000  )

     Band symmetry, C_2v (mm2)  point group:

     e(  1 -  1) =     -2.71568  eV     1   --> A_1  D_1  S_1  
     e(  2 -  2) =     -0.58343  eV     1   --> B_2  D_4  S_4  
     e(  3 -  3) =      1.62833  eV     1   --> A_1  D_1  S_1  
     e(  4 -  4) =      4.00907  eV     1   --> A_2  D_2  S_2  
     e(  5 -  5) =      7.65439  eV     1   --> B_2  D_4  S_4  
     e(  6 -  6) =     12.04342  eV     1   --> A_1  D_1  S_1  
     e(  7 -  7) =     12.31725  eV     1   --> B_1  D_3  S_3  
     e(  8 -  8) =     12.96432  eV     1   --> A_1  D_1  S_1  

 **************************************************************************

 **************************************************************************

                    xk=(  -0.62500,   0.62500,   0.00000  )

     Band symmetry, C_2v (mm2)  point group:

     e(  1 -  1) =     -2.89265  eV     1   --> A_1  D_1  S_1  
     e(  2 -  2) =     -0.41483  eV     1   --> B_2  D_4  S_4  
[...]
     e(  7 -  7) =     11.79867  eV     1   --> A_1  D_1  S_1  
     e(  8 -  8) =     12.60680  eV     1   --> B_2  D_4  S_4  

 **************************************************************************

 **************************************************************************

                    xk=(  -0.55000,   0.55000,   0.00000  )

     Band symmetry, C_2v (mm2)  point group:

     e(  1 -  1) =     -3.45430  eV     1   --> A_1  D_1  S_1  
     e(  2 -  2) =      0.15810  eV     1   --> B_2  D_4  S_4  
     e(  3 -  3) =      1.98135  eV     1   --> A_1  D_1  S_1  
     e(  4 -  4) =      4.47623  eV     1   --> A_2  D_2  S_2  
     e(  5 -  5) =      8.19155  eV     1   --> B_2  D_4  S_4  
     e(  6 -  6) =     11.28593  eV     1   --> B_1  D_3  S_3  
     e(  7 -  7) =     11.56749  eV     1   --> A_1  D_1  S_1  
     e(  8 -  8) =     12.42394  eV     1   --> B_2  D_4  S_4  

 **************************************************************************

 **************************************************************************

                    xk=(  -0.52500,   0.52500,   0.00000  )

     Band symmetry, C_2v (mm2)  point group:

     e(  1 -  1) =     -3.64350  eV     1   --> A_1  D_1  S_1  
     e(  2 -  2) =      0.37114  eV     1   --> B_2  D_4  S_4  
     e(  3 -  3) =      2.12109  eV     1   --> A_1  D_1  S_1  
     e(  4 -  4) =      4.60006  eV     1   --> A_2  D_2  S_2  
     e(  5 -  5) =      8.32963  eV     1   --> B_2  D_4  S_4  
     e(  6 -  6) =     11.05208  eV     1   --> B_1  D_3  S_3  
     e(  7 -  7) =     11.33756  eV     1   --> A_1  D_1  S_1  
     e(  8 -  8) =     12.25592  eV     1   --> B_2  D_4  S_4  

 **************************************************************************

 **************************************************************************

                    xk=(  -0.50000,   0.50000,   0.00000  )

     Band symmetry, C_2v (mm2)  point group:

     e(  1 -  1) =     -3.83037  eV     1   --> A_1  D_1  S_1  
     e(  2 -  2) =      0.59501  eV     1   --> B_2  D_4  S_4  
     e(  3 -  3) =      2.27730  eV     1   --> A_1  D_1  S_1  
     e(  4 -  4) =      4.72473  eV     1   --> A_2  D_2  S_2  
     e(  5 -  5) =      8.46496  eV     1   --> B_2  D_4  S_4  
     e(  6 -  6) =     10.82828  eV     1   --> B_1  D_3  S_3  
     e(  7 -  7) =     11.11357  eV     1   --> A_1  D_1  S_1  
     e(  8 -  8) =     12.10466  eV     1   --> B_2  D_4  S_4  

 **************************************************************************

 **************************************************************************

                    xk=(  -0.47500,   0.47500,   0.00000  )

     Band symmetry, C_2v (mm2)  point group:

     e(  1 -  1) =     -4.01341  eV     1   --> A_1  D_1  S_1  
     e(  2 -  2) =      0.82955  eV     1   --> B_2  D_4  S_4  
     e(  3 -  3) =      2.44829  eV     1   --> A_1  D_1  S_1  
     e(  4 -  4) =      4.84911  eV     1   --> A_2  D_2  S_2  
     e(  5 -  5) =      8.59460  eV     1   --> B_2  D_4  S_4  
     e(  6 -  6) =     10.61469  eV     1   --> B_1  D_3  S_3  
     e(  7 -  7) =     10.89742  eV     1   --> A_1  D_1  S_1  
     e(  8 -  8) =     11.97219  eV     1   --> B_2  D_4  S_4  

 **************************************************************************

 **************************************************************************

                    xk=(  -0.45000,   0.45000,   0.00000  )

     Band symmetry, C_2v (mm2)  point group:

     e(  1 -  1) =     -4.19137  eV     1   --> A_1  D_1  S_1  
     e(  2 -  2) =      1.07460  eV     1   --> B_2  D_4  S_4  
     e(  3 -  3) =      2.63255  eV     1   --> A_1  D_1  S_1  
     e(  4 -  4) =      4.97197  eV     1   --> A_2  D_2  S_2  
     e(  5 -  5) =      8.71525  eV     1   --> B_2  D_4  S_4  
     e(  6 -  6) =     10.41145  eV     1   --> B_1  D_3  S_3  
     e(  7 -  7) =     10.69003  eV     1   --> A_1  D_1  S_1  
     e(  8 -  8) =     11.86060  eV     1   --> B_2  D_4  S_4  

 **************************************************************************

 **************************************************************************

                    xk=(  -0.42500,   0.42500,   0.00000  )

     Band symmetry, C_2v (mm2)  point group:

     e(  1 -  1) =     -4.36322  eV     1   --> A_1  D_1  S_1  
     e(  2 -  2) =      1.32998  eV     1   --> B_2  D_4  S_4  
     e(  3 -  3) =      2.82867  eV     1   --> A_1  D_1  S_1  
     e(  4 -  4) =      5.09208  eV     1   --> A_2  D_2  S_2  
     e(  5 -  5) =      8.82338  eV     1   --> B_2  D_4  S_4  
     e(  6 -  6) =     10.21869  eV     1   --> B_1  D_3  S_3  
     e(  7 -  7) =     10.49191  eV     1   --> A_1  D_1  S_1  
     e(  8 -  8) =     11.77180  eV     1   --> B_2  D_4  S_4  

 **************************************************************************

 **************************************************************************

                    xk=(  -0.40000,   0.40000,   0.00000  )

     Band symmetry, C_2v (mm2)  point group:

     e(  1 -  1) =     -4.52810  eV     1   --> A_1  D_1  S_1  
     e(  2 -  2) =      1.59542  eV     1   --> B_2  D_4  S_4  
     e(  3 -  3) =      3.03532  eV     1   --> A_1  D_1  S_1  
     e(  4 -  4) =      5.20817  eV     1   --> A_2  D_2  S_2  
     e(  5 -  5) =      8.91543  eV     1   --> B_2  D_4  S_4  
     e(  6 -  6) =     10.03651  eV     1   --> B_1  D_3  S_3  
     e(  7 -  7) =     10.30325  eV     1   --> A_1  D_1  S_1  
     e(  8 -  8) =     11.70670  eV     1   --> B_2  D_4  S_4  

 **************************************************************************

 **************************************************************************

                    xk=(  -0.37500,   0.37500,   0.00000  )

     Band symmetry, C_2v (mm2)  point group:

     e(  1 -  1) =     -4.68530  eV     1   --> A_1  D_1  S_1  
     e(  2 -  2) =      1.87068  eV     1   --> B_2  D_4  S_4  
     e(  3 -  3) =      3.25116  eV     1   --> A_1  D_1  S_1  
     e(  4 -  4) =      5.31902  eV     1   --> A_2  D_2  S_2  
     e(  5 -  5) =      8.98857  eV     1   --> B_2  D_4  S_4  
     e(  6 -  6) =      9.86501  eV     1   --> B_1  D_3  S_3  
     e(  7 -  7) =     10.12416  eV     1   --> A_1  D_1  S_1  
     e(  8 -  8) =     11.66469  eV     1   --> B_2  D_4  S_4  

 **************************************************************************

 **************************************************************************

                    xk=(  -0.35000,   0.35000,   0.00000  )

     Band symmetry, C_2v (mm2)  point group:

     e(  1 -  1) =     -4.83422  eV     1   --> A_1  D_1  S_1  
     e(  2 -  2) =      2.15540  eV     1   --> B_2  D_4  S_4  
     e(  3 -  3) =      3.47485  eV     1   --> A_1  D_1  S_1  
     e(  4 -  4) =      5.42349  eV     1   --> A_2  D_2  S_2  
     e(  5 -  5) =      9.04115  eV     1   --> B_2  D_4  S_4  
     e(  6 -  6) =      9.70427  eV     1   --> B_1  D_3  S_3  
     e(  7 -  7) =      9.95466  eV     1   --> A_1  D_1  S_1  
     e(  8 -  8) =     11.64225  eV     1   --> B_2  D_4  S_4  

 **************************************************************************

 **************************************************************************

                    xk=(  -0.32500,   0.32500,   0.00000  )

     Band symmetry, C_2v (mm2)  point group:

     e(  1 -  1) =     -4.97440  eV     1   --> A_1  D_1  S_1  
     e(  2 -  2) =      2.44918  eV     1   --> B_2  D_4  S_4  
     e(  3 -  3) =      3.70493  eV     1   --> A_1  D_1  S_1  
     e(  4 -  4) =      5.52061  eV     1   --> A_2  D_2  S_2  
     e(  5 -  5) =      9.07311  eV     1   --> B_2  D_4  S_4  
     e(  6 -  6) =      9.55435  eV     1   --> B_1  D_3  S_3  
     e(  7 -  7) =      9.79467  eV     1   --> A_1  D_1  S_1  
     e(  8 -  8) =     11.63178  eV     1   --> B_2  D_4  S_4  

 **************************************************************************

 **************************************************************************

                    xk=(  -0.30000,   0.30000,   0.00000  )

     Band symmetry, C_2v (mm2)  point group:

     e(  1 -  1) =     -5.10542  eV     1   --> A_1  D_1  S_1  
     e(  2 -  2) =      2.75150  eV     1   --> B_2  D_4  S_4  
     e(  3 -  3) =      3.93984  eV     1   --> A_1  D_1  S_1  
     e(  4 -  4) =      5.60959  eV     1   --> A_2  D_2  S_2  
     e(  5 -  5) =      9.08608  eV     1   --> B_2  D_4  S_4  
     e(  6 -  6) =      9.41533  eV     1   --> B_1  D_3  S_3  
     e(  7 -  7) =      9.64407  eV     1   --> A_1  D_1  S_1  
     e(  8 -  8) =     11.62037  eV     1   --> B_2  D_4  S_4  

 **************************************************************************

 **************************************************************************

                    xk=(  -0.27500,   0.27500,   0.00000  )

     Band symmetry, C_2v (mm2)  point group:

     e(  1 -  1) =     -5.22692  eV     1   --> A_1  D_1  S_1  
     e(  2 -  2) =      3.06170  eV     1   --> B_2  D_4  S_4  
     e(  3 -  3) =      4.17780  eV     1   --> A_1  D_1  S_1  
     e(  4 -  4) =      5.68988  eV     1   --> A_2  D_2  S_2  
     e(  5 -  5) =      9.08289  eV     1   --> B_2  D_4  S_4  
     e(  6 -  6) =      9.28726  eV     1   --> B_1  D_3  S_3  
     e(  7 -  7) =      9.50273  eV     1   --> A_1  D_1  S_1  
     e(  8 -  8) =     11.58904  eV     1   --> B_2  D_4  S_4  

 **************************************************************************

 **************************************************************************

                    xk=(  -0.25000,   0.25000,   0.00000  )

     Band symmetry, C_2v (mm2)  point group:

     e(  1 -  1) =     -5.33864  eV     1   --> A_1  D_1  S_1  
     e(  2 -  2) =      3.37892  eV     1   --> B_2  D_4  S_4  
     e(  3 -  3) =      4.41677  eV     1   --> A_1  D_1  S_1  
     e(  4 -  4) =      5.76121  eV     1   --> A_2  D_2  S_2  
     e(  5 -  5) =      9.06688  eV     1   --> B_2  D_4  S_4  
     e(  6 -  6) =      9.17018  eV     1   --> B_1  D_3  S_3  
     e(  7 -  7) =      9.37043  eV     1   --> A_1  D_1  S_1  
     e(  8 -  8) =     11.51395  eV     1   --> B_2  D_4  S_4  

 **************************************************************************

 **************************************************************************

                    xk=(  -0.22500,   0.22500,   0.00000  )

     Band symmetry, C_2v (mm2)  point group:

     e(  1 -  1) =     -5.44031  eV     1   --> A_1  D_1  S_1  
     e(  2 -  2) =      3.70201  eV     1   --> B_2  D_4  S_4  
     e(  3 -  3) =      4.65435  eV     1   --> A_1  D_1  S_1  
     e(  4 -  4) =      5.82355  eV     1   --> A_2  D_2  S_2  
     e(  5 -  5) =      9.04148  eV     1   --> B_2  D_4  S_4  
     e(  6 -  6) =      9.06414  eV     1   --> B_1  D_3  S_3  
     e(  7 -  7) =      9.24703  eV     1   --> A_1  D_1  S_1  
     e(  8 -  8) =     11.37350  eV     1   --> B_2  D_4  S_4  

 **************************************************************************

 **************************************************************************

                    xk=(  -0.20000,   0.20000,   0.00000  )

     Band symmetry, C_2v (mm2)  point group:

     e(  1 -  1) =     -5.53175  eV     1   --> A_1  D_1  S_1  
     e(  2 -  2) =      4.02938  eV     1   --> B_2  D_4  S_4  
     e(  3 -  3) =      4.88772  eV     1   --> A_1  D_1  S_1  
     e(  4 -  4) =      5.87712  eV     1   --> A_2  D_2  S_2  
     e(  5 -  5) =      8.96918  eV     1   --> B_1  D_3  S_3  
     e(  6 -  6) =      9.00952  eV     1   --> B_2  D_4  S_4  
     e(  7 -  7) =      9.13238  eV     1   --> A_1  D_1  S_1  
     e(  8 -  8) =     11.16010  eV     1   --> B_2  D_4  S_4  

 **************************************************************************

 **************************************************************************

                    xk=(  -0.17500,   0.17500,   0.00000  )

     Band symmetry, C_2v (mm2)  point group:

     e(  1 -  1) =     -5.61278  eV     1   --> A_1  D_1  S_1  
     e(  2 -  2) =      4.35879  eV     1   --> B_2  D_4  S_4  
     e(  3 -  3) =      5.11349  eV     1   --> A_1  D_1  S_1  
     e(  4 -  4) =      5.92233  eV     1   --> A_2  D_2  S_2  
     e(  5 -  5) =      8.88531  eV     1   --> B_1  D_3  S_3  
     e(  6 -  6) =      8.97306  eV     1   --> B_2  D_4  S_4  
     e(  7 -  7) =      9.02645  eV     1   --> A_1  D_1  S_1  
     e(  8 -  8) =     10.88580  eV     1   --> B_2  D_4  S_4  

 **************************************************************************

 **************************************************************************

                    xk=(  -0.15000,   0.15000,   0.00000  )

     Band symmetry, C_2v (mm2)  point group:

     e(  1 -  1) =     -5.68327  eV     1   --> A_1  D_1  S_1  
     e(  2 -  2) =      4.68693  eV     1   --> B_2  D_4  S_4  
     e(  3 -  3) =      5.32760  eV     1   --> A_1  D_1  S_1  
     e(  4 -  4) =      5.95974  eV     1   --> A_2  D_2  S_2  
     e(  5 -  5) =      8.81258  eV     1   --> B_1  D_3  S_3  
     e(  6 -  6) =      8.92948  eV     1   --> A_1  D_1  S_1  
     e(  7 -  7) =      8.93310  eV     1   --> B_2  D_4  S_4  
     e(  8 -  8) =     10.57457  eV     1   --> B_2  D_4  S_4  

 **************************************************************************

 **************************************************************************

                    xk=(  -0.12500,   0.12500,   0.00000  )

     Band symmetry, C_2v (mm2)  point group:

     e(  1 -  1) =     -5.74310  eV     1   --> A_1  D_1  S_1  
     e(  2 -  2) =      5.00881  eV     1   --> B_2  D_4  S_4  
     e(  3 -  3) =      5.52521  eV     1   --> A_1  D_1  S_1  
     e(  4 -  4) =      5.98996  eV     1   --> A_2  D_2  S_2  
     e(  5 -  5) =      8.75100  eV     1   --> B_1  D_3  S_3  
     e(  6 -  6) =      8.84206  eV     1   --> A_1  D_1  S_1  
     e(  7 -  7) =      8.88917  eV     1   --> B_2  D_4  S_4  
     e(  8 -  8) =     10.25230  eV     1   --> B_2  D_4  S_4  

 **************************************************************************

 **************************************************************************

                    xk=(  -0.10000,   0.10000,   0.00000  )

     Band symmetry, C_2v (mm2)  point group:

     e(  1 -  1) =     -5.79217  eV     1   --> A_1  D_1  S_1  
     e(  2 -  2) =      5.31661  eV     1   --> B_2  D_4  S_4  
     e(  3 -  3) =      5.70067  eV     1   --> A_1  D_1  S_1  
     e(  4 -  4) =      6.01363  eV     1   --> A_2  D_2  S_2  
     e(  5 -  5) =      8.70059  eV     1   --> B_1  D_3  S_3  
     e(  6 -  6) =      8.76537  eV     1   --> A_1  D_1  S_1  
     e(  7 -  7) =      8.83892  eV     1   --> B_2  D_4  S_4  
     e(  8 -  8) =      9.94414  eV     1   --> B_2  D_4  S_4  

 **************************************************************************

 **************************************************************************

                    xk=(  -0.07500,   0.07500,   0.00000  )

     Band symmetry, C_2v (mm2)  point group:

     e(  1 -  1) =     -5.83041  eV     1   --> A_1  D_1  S_1  
     e(  2 -  2) =      5.59791  eV     1   --> B_2  D_4  S_4  
     e(  3 -  3) =      5.84758  eV     1   --> A_1  D_1  S_1  
     e(  4 -  4) =      6.03134  eV     1   --> A_2  D_2  S_2  
     e(  5 -  5) =      8.66136  eV     1   --> B_1  D_3  S_3  
     e(  6 -  6) =      8.70131  eV     1   --> A_1  D_1  S_1  
     e(  7 -  7) =      8.77834  eV     1   --> B_2  D_4  S_4  
     e(  8 -  8) =      9.67649  eV     1   --> B_2  D_4  S_4  

 **************************************************************************

 **************************************************************************

                    xk=(  -0.05000,   0.05000,   0.00000  )

     Band symmetry, C_2v (mm2)  point group:

     e(  1 -  1) =     -5.85776  eV     1   --> A_1  D_1  S_1  
     e(  2 -  2) =      5.83317  eV     1   --> B_2  D_4  S_4  
     e(  3 -  3) =      5.95920  eV     1   --> A_1  D_1  S_1  
     e(  4 -  4) =      6.04361  eV     1   --> A_2  D_2  S_2  
     e(  5 -  5) =      8.63334  eV     1   --> B_1  D_3  S_3  
     e(  6 -  6) =      8.65242  eV     1   --> A_1  D_1  S_1  
     e(  7 -  7) =      8.70664  eV     1   --> B_2  D_4  S_4  
     e(  8 -  8) =      9.47583  eV     1   --> B_2  D_4  S_4  

 **************************************************************************

 **************************************************************************

                    xk=(  -0.02500,   0.02500,   0.00000  )

     Band symmetry, C_2v (mm2)  point group:

     e(  1 -  1) =     -5.87419  eV     1   --> A_1  D_1  S_1  
     e(  2 -  2) =      5.99474  eV     1   --> B_2  D_4  S_4  
     e(  3 -  3) =      6.02926  eV     1   --> A_1  D_1  S_1  
     e(  4 -  4) =      6.05081  eV     1   --> A_2  D_2  S_2  
     e(  5 -  5) =      8.61652  eV     1   --> B_1  D_3  S_3  
     e(  6 -  6) =      8.62152  eV     1   --> A_1  D_1  S_1  
     e(  7 -  7) =      8.63963  eV     1   --> B_2  D_4  S_4  
     e(  8 -  8) =      9.35769  eV     1   --> B_2  D_4  S_4  

 **************************************************************************

 **************************************************************************

                    xk=(   0.00000,   0.00000,   0.00000  )

     point group O_h (m-3m) 
     there are 10 classes
     the character table:

       E     8C3   3C2   6C4   6C2'  i     8S6   3s_h  6S4   6s_d 
A_1g   1.00  1.00  1.00  1.00  1.00  1.00  1.00  1.00  1.00  1.00
A_2g   1.00  1.00  1.00 -1.00 -1.00  1.00  1.00  1.00 -1.00 -1.00
E_g    2.00 -1.00  2.00  0.00  0.00  2.00 -1.00  2.00  0.00  0.00
T_1g   3.00  0.00 -1.00  1.00 -1.00  3.00  0.00 -1.00  1.00 -1.00
T_2g   3.00  0.00 -1.00 -1.00  1.00  3.00  0.00 -1.00 -1.00  1.00
A_1u   1.00  1.00  1.00  1.00  1.00 -1.00 -1.00 -1.00 -1.00 -1.00
A_2u   1.00  1.00  1.00 -1.00 -1.00 -1.00 -1.00 -1.00  1.00  1.00
E_u    2.00 -1.00  2.00  0.00  0.00 -2.00  1.00 -2.00  0.00  0.00
T_1u   3.00  0.00 -1.00  1.00 -1.00 -3.00  0.00  1.00 -1.00  1.00
T_2u   3.00  0.00 -1.00 -1.00  1.00 -3.00  0.00  1.00  1.00 -1.00

     the symmetry operations in each class and the name of the first element:

     E        1
                                                                 
     8C3     17   19   20   18   24   21   22   23
                                                                 
     3C2      2    4    3
                                                                 
     6C4      7    8   15   16   12   11
                                                                 
     6C2'     5    6   14   13   10    9
                                                                 
     i       25
                                                                 
     8S6     41   43   44   42   48   45   46   47
                                                                 
     3s_h    26   28   27
                                                                 
     6S4     31   32   39   40   36   35
                                                                 
     6s_d    29   30   38   37   34   33
                                                                 

     Band symmetry, O_h (m-3m)  point group:

     e(  1 -  1) =     -5.87967  eV     1   --> A_1g G_1   G_1+
     e(  2 -  4) =      6.05318  eV     3   --> T_2g G_25' G_5+
     e(  5 -  7) =      8.61092  eV     3   --> T_1u G_15  G_4-
     e(  8 -  8) =      9.31992  eV     1   --> A_2u G_2'  G_2-

 **************************************************************************

     BANDS        :    11.72s CPU        12.37s WALL


   This run was terminated on:  14:57:32   6Mar2020            

=------------------------------------------------------------------------------=
   JOB DONE.
=------------------------------------------------------------------------------=
