
     Program PWSCF v.6.0 (svn rev. 13079) starts on  6Mar2020 at 14:56:35 

     This program is part of the open-source Quantum ESPRESSO suite
     for quantum simulation of materials; please cite
         "P. Giannozzi et al., J. Phys.:Condens. Matter 21 395502 (2009);
          URL http://www.quantum-espresso.org", 
     in publications or presentations arising from this work. More details at
     http://www.quantum-espresso.org/quote

     Parallel version (MPI), running on     1 processors
     Waiting for input...
     Reading input from standard input
     Message from routine read_cards :
     DEPRECATED: no units specified in ATOMIC_POSITIONS card
     Message from routine read_cards :
     ATOMIC_POSITIONS: units set to alat

     Current dimensions of program PWSCF are:
     Max number of different atomic species (ntypx) = 10
     Max number of k-points (npk) =  40000
     Max angular momentum in pseudopotentials (lmaxx) =  3

     Subspace diagonalization in iterative solution of the eigenvalue problem:
     a serial algorithm will be used


     G-vector sticks info
     --------------------
     sticks:   dense  smooth     PW     G-vecs:    dense   smooth      PW
     Sum         733     733    223                12939    12939    2133



     bravais-lattice index     =            2
     lattice parameter (alat)  =      10.2600  a.u.
     unit-cell volume          =     270.0114 (a.u.)^3
     number of atoms/cell      =            2
     number of atomic types    =            1
     number of electrons       =         8.00
     number of Kohn-Sham states=            4
     kinetic-energy cutoff     =      50.0000  Ry
     charge density cutoff     =     200.0000  Ry
     convergence threshold     =      1.0E-08
     mixing beta               =       0.7000
     number of iterations used =            8  plain     mixing
     Exchange-correlation      =  SLA  PZ   NOGX NOGC ( 1  1  0  0 0 0)

     celldm(1)=  10.260000  celldm(2)=   0.000000  celldm(3)=   0.000000
     celldm(4)=   0.000000  celldm(5)=   0.000000  celldm(6)=   0.000000

     crystal axes: (cart. coord. in units of alat)
               a(1) = (  -0.500000   0.000000   0.500000 )  
               a(2) = (   0.000000   0.500000   0.500000 )  
               a(3) = (  -0.500000   0.500000   0.000000 )  

     reciprocal axes: (cart. coord. in units 2 pi/alat)
               b(1) = ( -1.000000 -1.000000  1.000000 )  
               b(2) = (  1.000000  1.000000  1.000000 )  
               b(3) = ( -1.000000  1.000000 -1.000000 )  


     PseudoPot. # 1 for Si read from file:
     ./Si.pz-vbc.UPF
     MD5 check sum: 6dfa03ddd5817404712e03e4d12deb78
     Pseudo is Norm-conserving, Zval =  4.0
     Generated by new atomic code, or converted to UPF format
     Using radial grid of  431 points,  2 beta functions with: 
                l(1) =   0
                l(2) =   1

     atomic species   valence    mass     pseudopotential
        Si             4.00    28.08550     Si( 1.00)

     48 Sym. Ops., with inversion, found (24 have fractional translation)



   Cartesian axes

     site n.     atom                  positions (alat units)
         1           Si  tau(   1) = (   0.0000000   0.0000000   0.0000000  )
         2           Si  tau(   2) = (   0.2500000   0.2500000   0.2500000  )

     number of k points=    16
                       cart. coord. in units 2pi/alat
        k(    1) = (   0.0000000   0.0000000   0.0000000), wk =   0.0092593
        k(    2) = (  -0.1666667   0.1666667  -0.1666667), wk =   0.0740741
        k(    3) = (  -0.3333333   0.3333333  -0.3333333), wk =   0.0740741
        k(    4) = (   0.5000000  -0.5000000   0.5000000), wk =   0.0370370
        k(    5) = (   0.0000000   0.3333333   0.0000000), wk =   0.0555556
        k(    6) = (  -0.1666667   0.5000000  -0.1666667), wk =   0.2222222
        k(    7) = (   0.6666667  -0.3333333   0.6666667), wk =   0.2222222
        k(    8) = (   0.5000000  -0.1666667   0.5000000), wk =   0.2222222
        k(    9) = (   0.3333333   0.0000000   0.3333333), wk =   0.1111111
        k(   10) = (   0.0000000   0.6666667   0.0000000), wk =   0.0555556
        k(   11) = (   0.8333333  -0.1666667   0.8333333), wk =   0.2222222
        k(   12) = (   0.6666667  -0.0000000   0.6666667), wk =   0.1111111
        k(   13) = (   0.0000000  -1.0000000   0.0000000), wk =   0.0277778
        k(   14) = (   0.6666667  -0.3333333   1.0000000), wk =   0.2222222
        k(   15) = (   0.5000000  -0.1666667   0.8333333), wk =   0.2222222
        k(   16) = (  -0.3333333  -1.0000000   0.0000000), wk =   0.1111111

     Dense  grid:    12939 G-vectors     FFT dimensions: (  36,  36,  36)

     Estimated max dynamical RAM per process >      10.66Mb

     Initial potential from superposition of free atoms

     starting charge    7.99901, renormalised to    8.00000
     Starting wfc are    8 randomized atomic wfcs

     total cpu time spent up to now is        0.8 secs

     per-process dynamical memory:    13.1 Mb

     Self-consistent Calculation

     iteration #  1     ecut=    50.00 Ry     beta=0.70
     Davidson diagonalization with overlap
     ethr =  1.00E-02,  avg # of iterations =  2.0

     Threshold (ethr) on eigenvalues was too large:
     Diagonalizing with lowered threshold

     Davidson diagonalization with overlap
     ethr =  7.83E-04,  avg # of iterations =  1.0

     total cpu time spent up to now is        1.7 secs

     total energy              =     -15.84821835 Ry
     Harris-Foulkes estimate   =     -15.86872342 Ry
     estimated scf accuracy    <       0.06095861 Ry

     iteration #  2     ecut=    50.00 Ry     beta=0.70
     Davidson diagonalization with overlap
     ethr =  7.62E-04,  avg # of iterations =  1.0

     total cpu time spent up to now is        2.1 secs

     total energy              =     -15.85115276 Ry
     Harris-Foulkes estimate   =     -15.85146566 Ry
     estimated scf accuracy    <       0.00218808 Ry

     iteration #  3     ecut=    50.00 Ry     beta=0.70
     Davidson diagonalization with overlap
     ethr =  2.74E-05,  avg # of iterations =  2.3

     total cpu time spent up to now is        2.5 secs

     total energy              =     -15.85155107 Ry
     Harris-Foulkes estimate   =     -15.85158107 Ry
     estimated scf accuracy    <       0.00007056 Ry

     iteration #  4     ecut=    50.00 Ry     beta=0.70
     Davidson diagonalization with overlap
     ethr =  8.82E-07,  avg # of iterations =  2.2

     total cpu time spent up to now is        3.0 secs

     total energy              =     -15.85157088 Ry
     Harris-Foulkes estimate   =     -15.85157449 Ry
     estimated scf accuracy    <       0.00000777 Ry

     iteration #  5     ecut=    50.00 Ry     beta=0.70
     Davidson diagonalization with overlap
     ethr =  9.72E-08,  avg # of iterations =  2.0

     total cpu time spent up to now is        3.5 secs

     total energy              =     -15.85157220 Ry
     Harris-Foulkes estimate   =     -15.85157224 Ry
     estimated scf accuracy    <       0.00000011 Ry

     iteration #  6     ecut=    50.00 Ry     beta=0.70
     Davidson diagonalization with overlap
     ethr =  1.43E-09,  avg # of iterations =  2.6

     total cpu time spent up to now is        4.0 secs

     End of self-consistent calculation

          k = 0.0000 0.0000 0.0000 (  1639 PWs)   bands (ev):

    -5.8798   6.0530   6.0530   6.0530

          k =-0.1667 0.1667-0.1667 (  1591 PWs)   bands (ev):

    -5.5181   3.6753   5.6028   5.6028

          k =-0.3333 0.3333-0.3333 (  1609 PWs)   bands (ev):

    -4.4991   0.7208   5.0526   5.0526

          k = 0.5000-0.5000 0.5000 (  1622 PWs)   bands (ev):

    -3.5332  -0.9259   4.8543   4.8543

          k = 0.0000 0.3333 0.0000 (  1607 PWs)   bands (ev):

    -5.3952   4.0275   4.8586   4.8586

          k =-0.1667 0.5000-0.1667 (  1611 PWs)   bands (ev):

    -4.5782   1.6304   4.0550   4.3044

          k = 0.6667-0.3333 0.6667 (  1607 PWs)   bands (ev):

    -3.3776  -0.5493   3.2685   4.2746

          k = 0.5000-0.1667 0.5000 (  1610 PWs)   bands (ev):

    -3.7667   0.0547   2.9946   4.7553

          k = 0.3333 0.0000 0.3333 (  1604 PWs)   bands (ev):

    -4.9288   2.3501   3.6275   5.4889

          k = 0.0000 0.6667 0.0000 (  1624 PWs)   bands (ev):

    -3.9735   1.0717   3.6306   3.6306

          k = 0.8333-0.1667 0.8333 (  1619 PWs)   bands (ev):

    -2.8058  -0.4801   2.3993   3.4937

          k = 0.6667-0.0000 0.6667 (  1612 PWs)   bands (ev):

    -2.6032  -0.6897   1.6086   3.9379

          k = 0.0000-1.0000 0.0000 (  1604 PWs)   bands (ev):

    -1.7312  -1.7312   3.1942   3.1942

          k = 0.6667-0.3333 1.0000 (  1610 PWs)   bands (ev):

    -3.5853   0.4371   2.4627   3.7489

          k = 0.5000-0.1667 0.8333 (  1610 PWs)   bands (ev):

    -2.5925  -0.7677   2.0211   3.2772

          k =-0.3333-1.0000 0.0000 (  1618 PWs)   bands (ev):

    -1.6068  -1.6068   2.3855   2.3855

     highest occupied level (ev):     6.0530

!    total energy              =     -15.85157224 Ry
     Harris-Foulkes estimate   =     -15.85157224 Ry
     estimated scf accuracy    <          3.0E-09 Ry

     The total energy is the sum of the following terms:

     one-electron contribution =       4.65132307 Ry
     hartree contribution      =       1.09764873 Ry
     xc contribution           =      -4.79961443 Ry
     ewald contribution        =     -16.80092961 Ry

     convergence has been achieved in   6 iterations

     Writing output data file sil.save

     init_run     :      0.35s CPU      0.66s WALL (       1 calls)
     electrons    :      3.11s CPU      3.27s WALL (       1 calls)

     Called by init_run:
     wfcinit      :      0.27s CPU      0.41s WALL (       1 calls)
     potinit      :      0.01s CPU      0.05s WALL (       1 calls)

     Called by electrons:
     c_bands      :      2.52s CPU      2.61s WALL (       7 calls)
     sum_band     :      0.52s CPU      0.53s WALL (       7 calls)
     v_of_rho     :      0.05s CPU      0.05s WALL (       7 calls)
     mix_rho      :      0.02s CPU      0.04s WALL (       7 calls)

     Called by c_bands:
     init_us_2    :      0.09s CPU      0.11s WALL (     240 calls)
     cegterg      :      2.45s CPU      2.53s WALL (     112 calls)

     Called by sum_band:

     Called by *egterg:
     h_psi        :      2.49s CPU      2.52s WALL (     337 calls)
     g_psi        :      0.02s CPU      0.02s WALL (     209 calls)
     cdiaghg      :      0.03s CPU      0.20s WALL (     305 calls)

     Called by h_psi:
     h_psi:pot    :      2.48s CPU      2.51s WALL (     337 calls)
     h_psi:calbec :      0.05s CPU      0.05s WALL (     337 calls)
     vloc_psi     :      2.40s CPU      2.42s WALL (     337 calls)
     add_vuspsi   :      0.03s CPU      0.04s WALL (     337 calls)

     General routines
     calbec       :      0.05s CPU      0.05s WALL (     337 calls)
     fft          :      0.03s CPU      0.13s WALL (      29 calls)
     fftw         :      2.52s CPU      2.55s WALL (    3118 calls)
     davcio       :      0.00s CPU      0.00s WALL (      16 calls)

     Parallel routines
     fft_scatter  :      0.13s CPU      0.13s WALL (    3147 calls)

     PWSCF        :     3.54s CPU         4.19s WALL


   This run was terminated on:  14:56:40   6Mar2020            

=------------------------------------------------------------------------------=
   JOB DONE.
=------------------------------------------------------------------------------=
